<?xml version="1.0"?>
<VTKFile type="UnstructuredGrid"  version="0.1"  >
<UnstructuredGrid>
<Piece  NumberOfPoints="5042" NumberOfCells="9814">
<Points>
<DataArray  type="Float64"  NumberOfComponents="3"  format="ascii">0 0 0  0 0.012 0  0.02 0.012 0  0.02 0 0  0 0.0002399999999995596 0  0 0.0004799999999990798 0  0 0.0007199999999986036 0  0 0.0009599999999982128 0  0 0.001199999999997798 0  0 0.001439999999997451 0  0 0.001679999999996899 0  0 0.001919999999996208 0  0 0.002159999999995478 0  0 0.002399999999994887 0  0 0.002639999999994144 0  0 0.002879999999993544 0  0 0.003119999999992787 0  0 0.003359999999992186 0  0 0.003599999999991443 0  0 0.003839999999990853 0  0 0.004079999999990099 0  0 0.004319999999989343 0  0 0.004559999999988863 0  0 0.004799999999988168 0  0 0.00503999999998741 0  0 0.005279999999986652 0  0 0.005519999999986045 0  0 0.005759999999985477 0  0 0.00599999999998489 0  0 0.006239999999985699 0  0 0.006479999999986128 0  0 0.006719999999986353 0  0 0.006959999999987278 0  0 0.007199999999988255 0  0 0.007439999999988604 0  0 0.007679999999988715 0  0 0.007919999999989496 0  0 0.008159999999990475 0  0 0.008399999999991451 0  0 0.008639999999992428 0  0 0.008879999999992576 0  0 0.00911999999999182 0  0 0.00935999999999197 0  0 0.009599999999992948 0  0 0.009839999999993921 0  0 0.0100799999999949 0  0 0.01031999999999588 0  0 0.01055999999999685 0  0 0.01079999999999776 0  0 0.01103999999999727 0  0 0.01127999999999707 0  0 0.01151999999999805 0  0 0.01175999999999903 0  0.0002380952380947884 0.012 0  0.000476190476189585 0.012 0  0.0007142857142843371 0.012 0  0.0009523809523790612 0.012 0  0.001190476190473828 0.012 0  0.001428571428568669 0.012 0  0.001666666666663585 0.012 0  0.00190476190475845 0.012 0  0.002142857142853331 0.012 0  0.002380952380948226 0.012 0  0.002619047619042884 0.012 0  0.002857142857137328 0.012 0  0.003095238095231924 0.012 0  0.003333333333326469 0.012 0  0.003571428571421069 0.012 0  0.003809523809515577 0.012 0  0.0040476190476099 0.012 0  0.004285714285704363 0.012 0  0.004523809523799022 0.012 0  0.004761904761893679 0.012 0  0.004999999999988168 0.012 0  0.005238095238082656 0.012 0  0.005476190476177314 0.012 0  0.005714285714271973 0.012 0  0.005952380952366429 0.012 0  0.006190476190460674 0.012 0  0.006428571428555268 0.012 0  0.006666666666649926 0.012 0  0.006904761904744551 0.012 0  0.007142857142838951 0.012 0  0.00738095238093356 0.012 0  0.007619047619028219 0.012 0  0.007857142857122827 0.012 0  0.008095238095217089 0.012 0  0.008333333333311229 0.012 0  0.00857142857140537 0.012 0  0.008809523809500109 0.012 0  0.009047619047595282 0.012 0  0.009285714285690453 0.012 0  0.009523809523785304 0.012 0  0.009761904761879462 0.012 0  0.009999999999973941 0.012 0  0.01023809523806981 0.012 0  0.01047619047616602 0.012 0  0.01071428571426203 0.012 0  0.01095238095235735 0.012 0  0.01119047619045252 0.012 0  0.01142857142854813 0.012 0  0.01166666666664433 0.012 0  0.01190476190474054 0.012 0  0.01214285714283675 0.012 0  0.01238095238093295 0.012 0  0.01261904761902916 0.012 0  0.01285714285712483 0.012 0  0.01309523809522001 0.012 0  0.01333333333331529 0.012 0  0.01357142857141128 0.012 0  0.01380952380950748 0.012 0  0.01404761904760369 0.012 0  0.0142857142856999 0.012 0  0.0145238095237961 0.012 0  0.01476190476189164 0.012 0  0.01499999999998682 0.012 0  0.01523809523808199 0.012 0  0.01547619047617753 0.012 0  0.01571428571427374 0.012 0  0.01595238095236994 0.012 0  0.01619047619046615 0.012 0  0.01642857142856235 0.012 0  0.01666666666665855 0.012 0  0.01690476190475476 0.012 0  0.01714285714285096 0.012 0  0.01738095238094716 0.012 0  0.01761904761904337 0.012 0  0.01785714285713852 0.012 0  0.01809523809523265 0.012 0  0.01833333333332702 0.012 0  0.01857142857142277 0.012 0  0.01880952380951898 0.012 0  0.01904761904761518 0.012 0  0.01928571428571139 0.012 0  0.01952380952380759 0.012 0  0.0197619047619038 0.012 0  0.02 0.01175999999999921 0  0.02 0.01151999999999982 0  0.02 0.01128000000000058 0  0.02 0.01104000000000134 0  0.02 0.0108000000000021 0  0.02 0.01056000000000286 0  0.02 0.01032000000000362 0  0.02 0.01008000000000454 0  0.02 0.00984000000000684 0  0.02 0.009600000000007925 0  0.02 0.009360000000008683 0  0.02 0.00912000000000944 0  0.02 0.008880000000010199 0  0.02 0.008640000000010957 0  0.02 0.008400000000011714 0  0.02 0.008160000000011484 0  0.02 0.007920000000010507 0  0.02 0.007680000000010603 0  0.02 0.007440000000011084 0  0.02 0.00720000000001178 0  0.02 0.00696000000001254 0  0.02 0.0067200000000133 0  0.02 0.00648000000001391 0  0.02 0.006240000000014477 0  0.02 0.006000000000015067 0  0.02 0.005760000000014261 0  0.02 0.005520000000013832 0  0.02 0.005280000000013609 0  0.02 0.005040000000012686 0  0.02 0.004800000000011711 0  0.02 0.004560000000011364 0  0.02 0.004320000000011255 0  0.02 0.004080000000010475 0  0.02 0.003840000000009497 0  0.02 0.003600000000008525 0  0.02 0.00336000000000755 0  0.02 0.0031200000000074 0  0.02 0.002880000000008161 0  0.02 0.002640000000008011 0  0.02 0.002400000000007035 0  0.02 0.002160000000006062 0  0.02 0.001920000000005088 0  0.02 0.001680000000004112 0  0.02 0.00144000000000314 0  0.02 0.001200000000002232 0  0.02 0.0009600000000027208 0  0.02 0.0007200000000029232 0  0.02 0.0004800000000019476 0  0.02 0.0002400000000009738 0  0.01976190476190379 0 0  0.0195238095238076 0 0  0.01928571428571281 0 0  0.01904761904761866 0 0  0.01880952380952451 0 0  0.01857142857143036 0 0  0.01833333333333621 0 0  0.01809523809524206 0 0  0.01785714285714791 0 0  0.01761904761905376 0 0  0.01738095238095961 0 0  0.01714285714286546 0 0  0.01690476190477131 0 0  0.01666666666667694 0 0  0.01642857142858176 0 0  0.01619047619048657 0 0  0.01595238095239139 0 0  0.01571428571429621 0 0  0.0154761904762007 0 0  0.01523809523810551 0 0  0.01500000000001066 0 0  0.01476190476191651 0 0  0.01452380952382236 0 0  0.01428571428572822 0 0  0.01404761904763407 0 0  0.01380952380953992 0 0  0.01357142857144577 0 0  0.01333333333335162 0 0  0.01309523809525747 0 0  0.01285714285716308 0 0  0.01261904761906799 0 0  0.01238095238097281 0 0  0.01214285714287772 0 0  0.01190476190478333 0 0  0.01166666666668918 0 0  0.01142857142859503 0 0  0.01119047619050029 0 0  0.01095238095240511 0 0  0.01071428571430993 0 0  0.01047619047621507 0 0  0.0102380952381209 0 0  0.01000000000002641 0 0  0.009761904761930536 0 0  0.009523809523834321 0 0  0.0092857142857383 0 0  0.009047619047642974 0 0  0.008809523809547793 0 0  0.008571428571452176 0 0  0.008333333333355961 0 0  0.008095238095259746 0 0  0.00785714285716353 0 0  0.007619047619067313 0 0  0.0073809523809711 0 0  0.007142857142875417 0 0  0.006904761904780237 0 0  0.006666666666684943 0 0  0.006428571428588954 0 0  0.006190476190492738 0 0  0.005952380952396523 0 0  0.005714285714300309 0 0  0.005476190476204094 0 0  0.00523809523810854 0 0  0.00500000000001336 0 0  0.004761904761918179 0 0  0.004523809523822626 0 0  0.004285714285726411 0 0  0.004047619047630201 0 0  0.003809523809533987 0 0  0.003571428571437774 0 0  0.003333333333341564 0 0  0.00309523809524535 0 0  0.00285714285714914 0 0  0.002619047619052926 0 0  0.002380952380956713 0 0  0.002142857142861564 0 0  0.001904761904767415 0 0  0.001666666666673037 0 0  0.001428571428577278 0 0  0.001190476190481061 0 0  0.0009523809523848542 0 0  0.0007142857142886372 0 0  0.0004761904761924236 0 0  0.0002380952380962136 0 0  0.01318447728116931 0.0002054724756376096 0  0.00703571411504737 0.01179297346886515 0  0.009393957111202857 0.01178566829002903 0  0.01152411987223061 0.0002073705854719248 0  0.008209442714565999 0.0002293661341580651 0  0.006071428571444631 0.0002061965247114262 0  0.01252387159300391 0.01177721496147268 0  0.009864279959895488 0.0002092373795933997 0  0.01978984669846277 0.006132080769979573 0  0.0001918594623178119 0.006117810553728187 0  0.01418376177829061 0.01177611392099403 0  0.005373436206076422 0.01179331958565476 0  0.01085720811379693 0.01178395844817033 0  0.0146509645290248 0.0001956879809415279 0  0.0001755752538913103 0.00465949515529163 0  0.01978834567063831 0.004691789003433425 0  0.004631698329186475 0.0002047751934267602 0  0.01979087220358429 0.00756550010833225 0  0.0001995340756551599 0.007560008952131378 0  0.01558464754944247 0.01178986332668023 0  0.01605275139821281 0.0002042521088142625 0  0.003899937430954314 0.01178964579439611 0  0.00824045576413213 0.01179344211650992 0  0.0002078460969076221 0.003479999999991815 0  0.01978850594531548 0.003483415399629333 0  0.003424002220657234 0.0002053618445880372 0  0.01979254977368636 0.008765185815844821 0  0.0002079873092101698 0.008760161881310976 0  0.01678154229018126 0.01182442607549297 0  0.01727274415307985 0.0002248925371768773 0  0.002738095238090106 0.01179380347529011 0  0.01979215390309125 0.002520000000007523 0  0.0002078460969076217 0.002519999999994515 0  0.007262304885843406 0.0002024697694887917 0  0.00250000000000482 0.0002061965247109642 0  0.01979217402745079 0.009720102811022679 0  0.0002078532362884826 0.009719922724330445 0  0.01775621868387764 0.01178849440176412 0  0.0182169689601969 0.0001933026553644993 0  0.001788515484759992 0.01178939860996305 0  0.000200155249136635 0.001559925009654356 0  0.01978715651190513 0.001563831723424565 0  0.001569046683787388 0.0002108820145028341 0  0.01979217582511283 0.01068026059139825 0  0.0002081382544979005 0.01044048350356933 0  0.01979155267337484 0.006843404395469016 0  0.000187968684013261 0.005389055003690767 0  0.01979011858049167 0.005410500294388559 0  0.0001882816162553076 0.006828930252360772 0  0.009160250026290132 0.0002020789092408286 0  0.01082190557937627 0.0002015672655486539 0  0.01248354193408898 0.0002006047011554212 0  0.006330972935302184 0.01178523861319707 0  0.01175621854128248 0.01177775247620325 0  0.0139558814926981 0.0002048302144585014 0  0.01009626095885685 0.01177807292970702 0  0.01322663902696712 0.0
[...]
<PointData  Vectors="U [m]"> 
<DataArray  type="Float64"  Name="U [m]"  NumberOfComponents="3" format="ascii">-2.7056466015536990e-07 -5.7929368009091769e-06 0.0000000000000000e+00  0.0000000000000000e+00 0.0000000000000000e+00 0.0000000000000000e+00  0.0000000000000000e+00 0.0000000000000000e+00 0.0000000000000000e+00  2.7368088194844356e-07 -5.7900828945259344e-06 0.0000000000000000e+00  -3.5185839909597767e-07 -5.7918103019120073e-06 0.0000000000000000e+00  -4.3404996209054816e-07 -5.7874933857736410e-06 0.0000000000000000e+00  -5.1647008101597742e-07 -5.7798887865630500e-06 0.0000000000000000e+00  -5.9882084549822669e-07 -5.7688249315970698e-06 0.0000000000000000e+00  -6.8059803615671821e-07 -5.7541162863560525e-06 0.0000000000000000e+00  -7.6092492392773515e-07 -5.7357640187972468e-06 0.0000000000000000e+00  -8.3828564698687640e-07 -5.7142306396822564e-06 0.0000000000000000e+00  -9.1066324563026747e-07 -5.6918031977762268e-06 0.0000000000000000e+00  -9.7990124028103683e-07 -5.6742718525139245e-06 0.0000000000000000e+00  -1.0532921637079135e-06 -5.6619218238621229e-06 0.0000000000000000e+00  -1.1333320543184177e-06 -5.6485564109687157e-06 0.0000000000000000e+00  -1.2180350487066577e-06 -5.6316789698004775e-06 0.0000000000000000e+00  -1.3059446042779556e-06 -5.6106470972918776e-06 0.0000000000000000e+00  -1.3961808853125442e-06 -5.5852801071874836e-06 0.0000000000000000e+00  -1.4881614857393839e-06 -5.5554912093108943e-06 0.0000000000000000e+00  -1.5814370666049113e-06 -5.5212221953269631e-06 0.0000000000000000e+00  -1.6756998181089690e-06 -5.4824447812608759e-06 0.0000000000000000e+00  -1.7707353743630714e-06 -5.4391314657025912e-06 0.0000000000000000e+00  -1.8662331821932719e-06 -5.3911760858201156e-06 0.0000000000000000e+00  -1.9618054183640831e-06 -5.3385001266057053e-06 0.0000000000000000e+00  -2.0572766125957624e-06 -5.2811100897275308e-06 0.0000000000000000e+00  -2.1526957841832629e-06 -5.2189448263745596e-06 0.0000000000000000e+00  -2.2475023797472410e-06 -5.1519081574357591e-06 0.0000000000000000e+00  -2.3414736887492665e-06 -5.0800316405555080e-06 0.0000000000000000e+00  -2.4345642601956336e-06 -5.0031259148233255e-06 0.0000000000000000e+00  -2.5264411581056717e-06 -4.9211073554708418e-06 0.0000000000000000e+00  -2.6170656077910747e-06 -4.8338183626510775e-06 0.0000000000000000e+00  -2.7059084010277663e-06 -4.7411665680216276e-06 0.0000000000000000e+00  -2.7925944384646841e-06 -4.6431183455963565e-06 0.0000000000000000e+00  -2.8768892090453799e-06 -4.5395705374369113e-06 0.0000000000000000e+00  -2.9585331425168877e-06 -4.4303215287634637e-06 0.0000000000000000e+00  -3.0371983691546214e-06 -4.3149930911782799e-06 0.0000000000000000e+00  -3.1122302780891603e-06 -4.1934666018005309e-06 0.0000000000000000e+00  -3.1830665729039577e-06 -4.0655803738214944e-06 0.0000000000000000e+00  -3.2494189047018389e-06 -3.9307798970474499e-06 0.0000000000000000e+00  -3.3102633897300644e-06 -3.7888848692703665e-06 0.0000000000000000e+00  -3.3647436930044234e-06 -3.6394460299702367e-06 0.0000000000000000e+00  -3.4120151709329012e-06 -3.4817233907314693e-06 0.0000000000000000e+00  -3.4506379182292852e-06 -3.3150209352130130e-06 0.0000000000000000e+00  -3.4790814073268673e-06 -3.1382666687253176e-06 0.0000000000000000e+00  -3.4950802679877525e-06 -2.9501459803951924e-06 0.0000000000000000e+00  -3.4955648875118712e-06 -2.7488582111491186e-06 0.0000000000000000e+00  -3.4765553045787251e-06 -2.5320136191596124e-06 0.0000000000000000e+00  -3.4321483252538676e-06 -2.2959712142669641e-06 0.0000000000000000e+00  -3.3528928265229795e-06 -2.0351738401015550e-06 0.0000000000000000e+00  -3.2229630167369309e-06 -1.7402366435902542e-06 0.0000000000000000e+00  -3.0095236326491317e-06 -1.3961388805259868e-06 0.0000000000000000e+00  -2.6468525996871234e-06 -9.8107562500371763e-07 0.0000000000000000e+00  -1.9632866665799131e-06 -4.6051787664660057e-07 0.0000000000000000e+00  -9.4012395238261883e-07 -1.0533753067411561e-06 0.0000000000000000e+00  -1.4924679962697263e-06 -1.4918224648339436e-06 0.0000000000000000e+00  -1.8168985934901019e-06 -1.6774793279532046e-06 0.0000000000000000e+00  -2.0159649639863118e-06 -1.7787337179598952e-06 0.0000000000000000e+00  -2.1513059878253788e-06 -1.8277028862955378e-06 0.0000000000000000e+00  -2.2371257142326732e-06 -1.8461350504966104e-06 0.0000000000000000e+00  -2.2876389074238609e-06 -1.8473294110433742e-06 0.0000000000000000e+00  -2.3125722320971748e-06 -1.8358467930695821e-06 0.0000000000000000e+00  -2.3186068548444472e-06 -1.8149590463731094e-06 0.0000000000000000e+00  -2.3099848588512959e-06 -1.7873726401320023e-06 0.0000000000000000e+00  -2.2893892452247762e-06 -1.7567706778147742e-06 0.0000000000000000e+00  -2.2595278202208594e-06 -1.7228208734452870e-06 0.0000000000000000e+00  -2.2213014588119423e-06 -1.6869872492460270e-06 0.0000000000000000e+00  -2.1767099816000732e-06 -1.6499738597726758e-06 0.0000000000000000e+00  -2.1262483960863769e-06 -1.6121005024681006e-06 0.0000000000000000e+00  -2.0714557459411818e-06 -1.5730665053248644e-06 0.0000000000000000e+00  -2.0122309297773948e-06 -1.5355080827931977e-06 0.0000000000000000e+00  -1.9492668897798943e-06 -1.4979341635735995e-06 0.0000000000000000e+00  -1.8832702833767422e-06 -1.4610741735354992e-06 0.0000000000000000e+00  -1.8144454323463607e-06 -1.4248529833783227e-06 0.0000000000000000e+00  -1.7434485499110338e-06 -1.3894671626086553e-06 0.0000000000000000e+00  -1.6702603797824646e-06 -1.3558310652695572e-06 0.0000000000000000e+00  -1.5951568316912975e-06 -1.3231262641424293e-06 0.0000000000000000e+00  -1.5184704612802849e-06 -1.2918805885458367e-06 0.0000000000000000e+00  -1.4402702159533009e-06 -1.2620531509178066e-06 0.0000000000000000e+00  -1.3608389507935598e-06 -1.2338189164751662e-06 0.0000000000000000e+00  -1.2802725763407983e-06 -1.2068886440031604e-06 0.0000000000000000e+00  -1.1987247713356449e-06 -1.1815261071695548e-06 0.0000000000000000e+00  -1.1163125316336868e-06 -1.1581780693080535e-06 0.0000000000000000e+00  -1.0330596980745516e-06 -1.1361808267695469e-06 0.0000000000000000e+00  -9.4912376881548169e-07 -1.1160549977504933e-06 0.0000000000000000e+00  -8.6463527841490883e-07 -1.0973300006293669e-06 0.0000000000000000e+00  -7.7956006968357752e-07 -1.0805322455788285e-06 0.0000000000000000e+00  -6.9405741226591016e-07 -1.0655935361427980e-06 0.0000000000000000e+00  -6.0812200787245595e-07 -1.0522003963035123e-06 0.0000000000000000e+00  -5.2192990939007064e-07 -1.0405178567924718e-06 0.0000000000000000e+00  -4.3531615148956993e-07 -1.0307426617489802e-06 0.0000000000000000e+00  -3.4857524132628404e-07 -1.0227832443782796e-06 0.0000000000000000e+00  -2.6161242946834299e-07 -1.0164544220169696e-06 0.0000000000000000e+00  -1.7452928598538664e-07 -1.0120910037419650e-06 0.0000000000000000e+00  -8.7381586643097180e-08 -1.0092457767288825e-06 0.0000000000000000e+00  -1.4548230418862012e-10 -1.0083016961989439e-06 0.0000000000000000e+00  8.7001177157752560e-08 -1.0092660676827613e-06 0.0000000000000000e+00  1.7421694545648632e-07 -1.0117593036509123e-06 0.0000000000000000e+00  2.6135574285157110e-07 -1.0163218454618028e-06 0.0000000000000000e+00  3.4822639337020632e-07 -1.0224118369566478e-06 0.0000000000000000e+00  4.3499180441568130e-07 -1.0304970488582957e-06 0.0000000000000000e+00  5.2149848085802510e-07 -1.0401805617622249e-06 0.0000000000000000e+00  6.0778051281390672e-07 -1.0516183448275311e-06 0.0000000000000000e+00  6.9366991725563153e-07 -1.0650711900833500e-06 0.0000000000000000e+00  7.7920479139156258e-07 -1.0799607880927021e-06 0.0000000000000000e+00  8.6428705061450796e-07 -1.0967894386469496e-06 0.0000000000000000e+00  9.4876218188891487e-07 -1.1150297330920620e-06 0.0000000000000000e+00  1.0326962981934655e-06 -1.1353554440621685e-06 0.0000000000000000e+00  1.1159286444399960e-06 -1.1573155045688149e-06 0.0000000000000000e+00  1.1983689508194811e-06 -1.1806626222869488e-06 0.0000000000000000e+00  1.2799732912419133e-06 -1.2058587422952585e-06 0.0000000000000000e+00  1.3605034312563818e-06 -1.2325870912502404e-06 0.0000000000000000e+00  1.4399521774595607e-06 -1.2609172356481054e-06 0.0000000000000000e+00  1.5180398378211551e-06 -1.2903955667418943e-06 0.0000000000000000e+00  1.5946933644471184e-06 -1.3218861235323398e-06 0.0000000000000000e+00  1.6698093310143438e-06 -1.3545134306618852e-06 0.0000000000000000e+00  1.7430119298326432e-06 -1.3881518490654475e-06 0.0000000000000000e+00  1.8142036848996754e-06 -1.4232596656860019e-06 0.0000000000000000e+00  1.8828579445184662e-06 -1.4592438166993380e-06 0.0000000000000000e+00  1.9489391647782834e-06 -1.4962132743011452e-06 0.0000000000000000e+00  2.0119733918470352e-06 -1.5336970271534059e-06 0.0000000000000000e+00  2.0712478143675854e-06 -1.5717219323201834e-06 0.0000000000000000e+00  2.1263930038815553e-06 -1.6093663826892917e-06 0.0000000000000000e+00  2.1766214066861272e-06 -1.6474831498726719e-06 0.0000000000000000e+00  2.2210913791039953e-06 -1.6852917695302721e-06 0.0000000000000000e+00  2.2588925533837721e-06 -1.7211212616365720e-06 0.0000000000000000e+00  2.2892332503087056e-06 -1.7548042271694042e-06 0.0000000000000000e+00  2.3104084680854213e-06 -1.7853910014034727e-06 0.0000000000000000e+00  2.3191350558767919e-06 -1.8121468194589338e-06 0.0000000000000000e+00  2.3136676319416041e-06 -1.8323923597821523e-06 0.0000000000000000e+00  2.2887970153584917e-06 -1.8455151933516604e-06 0.0000000000000000e+00  2.2409210707912067e-06 -1.8442870727026722e-06 0.0000000000000000e+00  2.1606753657019966e-06 -1.8205760165279256e-06 0.0000000000000000e+00  2.0225522168541144e-06 -1.7805454526536778e-06 0.0000000000000000e+00  1.8231615319018721e-06 -1.6794215899428468e-06 0.0000000000000000e+00  1.4558446961919678e-06 -1.4758595661765441e-06 0.0000000000000000e+00  9.4068866109718623e-07 -1.0588717105360685e-06 0.0000000000000000e+00  1.9566630145525680e-06 -4.5599926536869834e-07 0.0000000000000000e+00  2.6479981338487272e-06 -9.7610634908328040e-07 0.0000000000000000e+00  3.0116602164917784e-06 -1.3929387195075987e-06 0.0000000000000000e+00  3.2233931240680476e-06 -1.7372443898294187e-06 0.0000000000000000e+00  3.3534263764667456e-06 -2.0323527048149488e-06 0.0000000000000000e+00  3.4325975512671437e-06 -2.2933369307117521e-06 0.0000000000000000e+00  3.4769399797732483e-06 -2.5293542636040405e-06 0.0000000000000000e+00  3.4958516962044835e-06 -2.7460830687910460e-06 0.0000000000000000e+00  3.4953240403649685e-06 -2.9472184531886752e-06 0.0000000000000000e+00  3.4794515693384115e-06 -3.1352618069600454e-06 0.0000000000000000e+00  3.4511473971380585e-06 -3.3120050824547307e-06 0.0000000000000000e+00  3.4125734205304975e-06 -3.4787583927720425e-06 0.0000000000000000e+00  3.3653778002582476e-06 -3.6365231671083953e-06 0.0000000000000000e+00  3.3108518917155459e-06 -3.7860462262663559e-06 0.0000000000000000e+00  3.2500909945436327e-06 -3.9278923321864640e-06 0.0000000000000000e+00  3.1839248342465448e-06 -4.0625853362276232e-06 0.0000000000000000e+00  3.1130615631984801e-06 -4.1905152202082876e-06 0.0000000000000000e+00  3.0381035603769140e-06 -4.3119958872247191e-06 0.0000000000000000e+00  2.9596195275750606e-06 -4.4272804405583668e-06 0.0000000000000000e+00  2.8779950087407548e-06 -4.5366601964944556e-06 0.0000000000000000e+00  2.7936711170227045e-06 -4.6402715434159898e-06 0.0000000000000000e+00  2.7069938952984204e-06 -4.7382867999811683e-06 0.0000000000000000e+00  2.6183223610601661e-06 -4.8308431179115023e-06 0.0000000000000000e+00  2.5278843664436498e-06 -4.9180945145054980e-06 0.0000000000000000e+00  2.4360329734443358e-06 -5.0001293553956987e-06 0.0000000000000000e+00  2.3429820460053513e-06 -5.0770817345534650e-06 0.0000000000000000e+00  2.2489488793405925e-06 -5.1490218828740403e-06 0.0000000000000000e+00  2.1542287151240515e-06 -5.2160246337596924e-06 0.0000000000000000e+00  2.0590370259758811e-06 -5.2781685235989031e-06 0.0000000000000000e+00  1.9635231716500785e-06 -5.3355184403232396e-06 0.0000000000000000e+00  1.8680227144616317e-06 -5.3881407747277335e-06 0.0000000000000000e+00  1.7726689450489425e-06 -5.4361251156939123e-06 0.0000000000000000e+00  1.6777561809044651e-06 -5.4794787490391716e-06 0.0000000000000000e+00  1.5835369450207426e-06 -5.5182674692985925e-06 0.0000000000000000e+00  1.4902760764416946e-06 -5.5525315364627449e-06 0.0000000000000000e+00  1.3983770945562946e-06 -5.5823267922631525e-06 0.0000000000000000e+00  1.3082350226893724e-06 -5.6077123284864234e-06 0.0000000000000000e+00  1.2203651068517131e-06 -5.6287654087746253e-06 0.0000000000000000e+00  1.1357164093767485e-06 -5.6456583133535870e-06 0.0000000000000000e+00  1.0557722131486177e-06 -5.6590295286552146e-06 0.0000000000000000e+00  9.8255455026075571e-07 -5.6714807446579687e-06 0.0000000000000000e+00  9.1332056195688513e-07 -5.6890318828517741e-06 0.0000000000000000e+00  8.4094274395430809e-07 -5.7114644431832007e-06 0.0000000000000000e+00  7.6362571926992663e-07 -5.7329292799740995e-06 0.0000000000000000e+00  6.8346926656365829e-07 -5.7511708738740395e-06 0.0000000000000000e+00  6.0171319975785532e-07 -5.7659198390885054e-06 0.0000000000000000e+00  5.1943108868175667e-07 -5.7769632381741463e-06 0.0000000000000000e+00  4.3704771857398965e-07 -5.7845811660781135e-06 0.0000000000000000e+00  3.5501012610833528e-07 -5.7889405719448395e-06 0.0000000000000000e+00  2.7307217135739283e-07 -5.7105717023323970e-06 0.0000000000000000e+00  2.7263068339271864e-07 -5.6337654201535710e-06 0.0000000000000000e+00  2.7193822129009353e-07 -5.5598292188277998e-06 0.0000000000000000e+00  2.7073319311199261e-07 -5.4883936055398101e-06 0.0000000000000000e+00  2.6949556416172726e-07 -5.4194756236784358e-06 0.0000000000000000e+00  2.6798204793051938e-07 -5.3529660796595631e-06 0.0000000000000000e+00  2.6626481583630453e-07 -5.2889144939722069e-06 0.0000000000000000e+00  2.6431327576949548e-07 -5.2271425947407155e-06 0.0000000000000000e+00  2.6217506076341868e-07 -5.1676926958361087e-06 0.0000000000000000e+00  2.5983809755805909e-07 -5.1104988056049444e-06 0.0000000000000000e+00  2.5725310676971292e-07 -5.0558309389594674e-06 0.0000000000000000e+00  2.5439837020828177e-07 -5.0033850304614775e-06 0.0000000000000000e+00  2.5127335801622180e-07 -4.9531781447306589e-06 0.0000000000000000e+00  2.4783659644060755e-07 -4.9053762678993644e-06 0.0000000000000000e+00  2.4397968725724430e-07 -4.8597465913109496e-06 0.0000000000000000e+00  2.3977858018709330e-07 -4.8164152162272499e-06 0.0000000000000000e+00  2.3512422526246576e-07 -4.7750054080291347e-06 0.0000000000000000e+00  2.3014319567531623e-07 -4.7359811777643734e-06 0.0000000000000000e+00  2.2466058393459286e-07 -4.6990494416643046e-06 0.0000000000000000e+00  2.1872299174534054e-07 -4.6638384228204352e-06 0.0000000000000000e+00  2.1227149490105112e-07 -4.6309533616590525e-06 0.0000000000000000e+00  2.0548475323187990e-07 -4.5996480886330198e-06 0.0000000000000000e+00  1.9828151486808011e-07 -4.5704288912156006e-06 0.0000000000000000e+00  1.9059842546798475e-07 -4.5427733234020610e-06 0.0000000000000000e+00  1.8253685639840369e-07 -4.5170703752060333e-06 0.0000000000000000e+00  1.7403508207605672e-07 -4.4931823989526727e-06 0.0000000000000000e+00  1.6517483482703201e-07 -4.4707494743390774e-06 0.0000000000000000e+00  1.5596417861139930e-07 -4.4500578106242498e-06 0.0000000000000000e+00  1.4635389012701689e-07 -4.4307233436429847e-06 0.0000000000000000e+00  1.3645320834918877e-07 -4.4132611383502990e-06 0.0000000000000000e+00  1.2626713147627299e-07 -4.3972538404488594e-06 0.0000000000000000e+00  1.1580430964231062e-07 -4.3825528443768770e-06 0.0000000000000000e+00  1.0511572777184305e-07 -4.3694945052484569e-06 0.0000000000000000e+00  9.4170379444269615e-08 -4.3578481781221490e-06 0.0000000000000000e+00  8.3051725104977680e-08 -4.3476554886943114e-06 0.0000000000000000e+00  7.1723943839819859e-08 -4.3386523259949065e-06 0.0000000000000000e+00  6.0235201232359307e-08 -4.3312635028741027e-06 0.0000000000000000e+00  4.8651949754815688e-08 -4.3253123284320975e-06 0.0000000000000000e+00  3.6974363845086767e-08 -4.3204981628260895e-06 0.0000000000000000e+00  2.5226294585222916e-08 -4.3171854596168431e-06 0.0000000000000000e+00  1.3424282758113891e-08 -4.3151850767303392e-06 0.0000000000000000e+00  1.6019720861735768e-09 -4.3146321068574798e-06 0.0000000000000000e+00  -1.0240609193059501e-08 -4.3152096688938922e-06 0.0000000000000000e+00  -2.2084694281664462e-08 -4.3172523461751570e-06 0.0000000000000000e+00  -3.3850484997260200e-08 -4.3208128109604539e-06 0.0000000000000000e+00  -4.5522238934206328e-08 -4.3255075678358542e-06 0.0000000000000000e+00  -5.7116193225860858e-08 -4.3316444359160277e-06 0.0000000000000000e+00  -6.8568439334525736e-08 -4.3391223347098403e-06 0.0000000000000000e+00  -7.9880325398951127e-08 -4.3481008157372956e-06 0.0000000000000000e+00  -9.1000748689442369e-08 -4.3584209837063400e-06 0.0000000000000000e+00  -1.0194148533520499e-07 -4.3700503842558195e-06 0.0000000000000000e+00  -1.1265527339371683e-07 -4.3833017818561526e-06 0.0000000000000000e+00  -1.2310952448021102e-07 -4.3979415856376001e-06 0.0000000000000000e+00  -1.3329784445987700e-07 -4.4141745170069734e-06 0.0000000000000000e+00  -1.4320158766726341e-07 -4.4316876916718265e-06 0.0000000000000000e+00  -1.5277089470250239e-07 -4.4508874290500241e-06 0.0000000000000000e+00  -1.6202556756764309e-07 -4.4718283356590485e-06 0.0000000000000000e+00  -1.7088567148938007e-07 -4.4941667855530577e-06 0.0000000000000000e+00  -1.7937851038030057e-07 -4.5183159487981704e-06 0.0000000000000000e+00  -1.8745234077321635e-07 -4.5441154630482869e-06 0.0000000000000000e+00  -1.9511886563377515e-07 -4.5717828030302225e-06 0.0000000000000000e+00  -2.0238705458881557e-07 -4.6010379847239915e-06 0.0000000000000000e+00  -2.0914812212448180e-07 -4.6322045713737881e-06 0.0000000000000000e+00  -2.1555820948784478e-07 -4.6655068194205840e-06 0.0000000000000000e+00  -2.2146916692594505e-07 -4.7005268340818978e-06 0.0000000000000000e+00  -2.2693430090992595e-07 -4.7377585542827243e-06 0.0000000000000000e+00  -2.3204085657998933e-07 -4.7767820223782561e-06 0.0000000000000000e+00  -2.3657513489757627e-07 -4.8181013417404628e-06 0.0000000000000000e+00  -2.4082308227819375e-07 -4.8616876238404321e-06 0.0000000000000000e+00  -2.4465541632083963e-07 -4.9072566489017478e-06 0.0000000000000000e+00  -2.4812516560251759e-07 -4.9552289966783575e-06 0.0000000000000000e+00  -2.5126582843017363e-07 -5.0054442287921430e-06 0.0000000000000000e+00  -2.5411235912043350e-07 -5.0579764692135529e-06 0.0000000000000000e+00  -2.5669675095574913e-07 -5.1127668876358823e-06 0.0000000000000000e+00  -2.5904938918834089e-07 -5.1700330749588760e-06 0.0000000000000000e+00  -2.6123440484532380e-07 -5.2294223622099488e-06 0.0000000000000000e+00  -2.6307311206727856e-07 -5.2911934381660688e-06 0.0000000000000000e+00  -2.6488332055984659e-07 -5.3555532839926388e-06 0.0000000000000000e+00  -2.6645517540844097e-07 -5.4219576027177826e-06 0.0000000000000000e+00  -2.6764523338749598e-07 -5.4909548323828183e-06 0.0000000000000000e+00  -2.6872464372949574e-07 -5.5624518993455604e-06 0.0000000000000000e+00  -2.6934498524878287e-07 -5.6365156688095422e-06 0.0000000000000000e+00  -2.7001921147219443e-07 -5.7134392227845909e-06 0.0000000000000000e+00  1.6671037808713477e-07 -4.4402000504144264e-06 0.0000000000000000e+00  -1.0523141475277378e-06 -1.2824003210675265e-06 0.0000000000000000e+00  -2.1805611451465459e-07 -1.1542699389090994e-06 0.0000000000000000e+00  8.4060135237652537e-08 -4.3451415989424296e-06 0.0000000000000000e+00  -9.5858724109491002e-08 -4.3563634300727610e-06 0.0000000000000000e+00  -1.9642962549512076e-07 -4.5080250855057372e-06 0.0000000000000000e+00  8.9830719874436557e-07 -1.2540261548001105e-06 0.0000000000000000e+00  -5.8392832001101725e-09 -4.3180350507208054e-06 0.0000000000000000e+00  2.4389534657918851e-06 -4.8783593912694415e-06 0.0000000000000000e+00  -2.4363882487142938e-06 -4.8925566560787900e-06 0.0000000000000000e+00  1.4581989822104