<?xml version="1.0"?>
<VTKFile type="UnstructuredGrid"  version="0.1"  >
<UnstructuredGrid>
<Piece  NumberOfPoints="5042" NumberOfCells="9814">
<Points>
<DataArray  type="Float64"  NumberOfComponents="3"  format="ascii">0 0 0  0 0.012 0  0.02 0.012 0  0.02 0 0  0 0.0002399999999995596 0  0 0.0004799999999990798 0  0 0.0007199999999986036 0  0 0.0009599999999982128 0  0 0.001199999999997798 0  0 0.001439999999997451 0  0 0.001679999999996899 0  0 0.001919999999996208 0  0 0.002159999999995478 0  0 0.002399999999994887 0  0 0.002639999999994144 0  0 0.002879999999993544 0  0 0.003119999999992787 0  0 0.003359999999992186 0  0 0.003599999999991443 0  0 0.003839999999990853 0  0 0.004079999999990099 0  0 0.004319999999989343 0  0 0.004559999999988863 0  0 0.004799999999988168 0  0 0.00503999999998741 0  0 0.005279999999986652 0  0 0.005519999999986045 0  0 0.005759999999985477 0  0 0.00599999999998489 0  0 0.006239999999985699 0  0 0.006479999999986128 0  0 0.006719999999986353 0  0 0.006959999999987278 0  0 0.007199999999988255 0  0 0.007439999999988604 0  0 0.007679999999988715 0  0 0.007919999999989496 0  0 0.008159999999990475 0  0 0.008399999999991451 0  0 0.008639999999992428 0  0 0.008879999999992576 0  0 0.00911999999999182 0  0 0.00935999999999197 0  0 0.009599999999992948 0  0 0.009839999999993921 0  0 0.0100799999999949 0  0 0.01031999999999588 0  0 0.01055999999999685 0  0 0.01079999999999776 0  0 0.01103999999999727 0  0 0.01127999999999707 0  0 0.01151999999999805 0  0 0.01175999999999903 0  0.0002380952380947884 0.012 0  0.000476190476189585 0.012 0  0.0007142857142843371 0.012 0  0.0009523809523790612 0.012 0  0.001190476190473828 0.012 0  0.001428571428568669 0.012 0  0.001666666666663585 0.012 0  0.00190476190475845 0.012 0  0.002142857142853331 0.012 0  0.002380952380948226 0.012 0  0.002619047619042884 0.012 0  0.002857142857137328 0.012 0  0.003095238095231924 0.012 0  0.003333333333326469 0.012 0  0.003571428571421069 0.012 0  0.003809523809515577 0.012 0  0.0040476190476099 0.012 0  0.004285714285704363 0.012 0  0.004523809523799022 0.012 0  0.004761904761893679 0.012 0  0.004999999999988168 0.012 0  0.005238095238082656 0.012 0  0.005476190476177314 0.012 0  0.005714285714271973 0.012 0  0.005952380952366429 0.012 0  0.006190476190460674 0.012 0  0.006428571428555268 0.012 0  0.006666666666649926 0.012 0  0.006904761904744551 0.012 0  0.007142857142838951 0.012 0  0.00738095238093356 0.012 0  0.007619047619028219 0.012 0  0.007857142857122827 0.012 0  0.008095238095217089 0.012 0  0.008333333333311229 0.012 0  0.00857142857140537 0.012 0  0.008809523809500109 0.012 0  0.009047619047595282 0.012 0  0.009285714285690453 0.012 0  0.009523809523785304 0.012 0  0.009761904761879462 0.012 0  0.009999999999973941 0.012 0  0.01023809523806981 0.012 0  0.01047619047616602 0.012 0  0.01071428571426203 0.012 0  0.01095238095235735 0.012 0  0.01119047619045252 0.012 0  0.01142857142854813 0.012 0  0.01166666666664433 0.012 0  0.01190476190474054 0.012 0  0.01214285714283675 0.012 0  0.01238095238093295 0.012 0  0.01261904761902916 0.012 0  0.01285714285712483 0.012 0  0.01309523809522001 0.012 0  0.01333333333331529 0.012 0  0.01357142857141128 0.012 0  0.01380952380950748 0.012 0  0.01404761904760369 0.012 0  0.0142857142856999 0.012 0  0.0145238095237961 0.012 0  0.01476190476189164 0.012 0  0.01499999999998682 0.012 0  0.01523809523808199 0.012 0  0.01547619047617753 0.012 0  0.01571428571427374 0.012 0  0.01595238095236994 0.012 0  0.01619047619046615 0.012 0  0.01642857142856235 0.012 0  0.01666666666665855 0.012 0  0.01690476190475476 0.012 0  0.01714285714285096 0.012 0  0.01738095238094716 0.012 0  0.01761904761904337 0.012 0  0.01785714285713852 0.012 0  0.01809523809523265 0.012 0  0.01833333333332702 0.012 0  0.01857142857142277 0.012 0  0.01880952380951898 0.012 0  0.01904761904761518 0.012 0  0.01928571428571139 0.012 0  0.01952380952380759 0.012 0  0.0197619047619038 0.012 0  0.02 0.01175999999999921 0  0.02 0.01151999999999982 0  0.02 0.01128000000000058 0  0.02 0.01104000000000134 0  0.02 0.0108000000000021 0  0.02 0.01056000000000286 0  0.02 0.01032000000000362 0  0.02 0.01008000000000454 0  0.02 0.00984000000000684 0  0.02 0.009600000000007925 0  0.02 0.009360000000008683 0  0.02 0.00912000000000944 0  0.02 0.008880000000010199 0  0.02 0.008640000000010957 0  0.02 0.008400000000011714 0  0.02 0.008160000000011484 0  0.02 0.007920000000010507 0  0.02 0.007680000000010603 0  0.02 0.007440000000011084 0  0.02 0.00720000000001178 0  0.02 0.00696000000001254 0  0.02 0.0067200000000133 0  0.02 0.00648000000001391 0  0.02 0.006240000000014477 0  0.02 0.006000000000015067 0  0.02 0.005760000000014261 0  0.02 0.005520000000013832 0  0.02 0.005280000000013609 0  0.02 0.005040000000012686 0  0.02 0.004800000000011711 0  0.02 0.004560000000011364 0  0.02 0.004320000000011255 0  0.02 0.004080000000010475 0  0.02 0.003840000000009497 0  0.02 0.003600000000008525 0  0.02 0.00336000000000755 0  0.02 0.0031200000000074 0  0.02 0.002880000000008161 0  0.02 0.002640000000008011 0  0.02 0.002400000000007035 0  0.02 0.002160000000006062 0  0.02 0.001920000000005088 0  0.02 0.001680000000004112 0  0.02 0.00144000000000314 0  0.02 0.001200000000002232 0  0.02 0.0009600000000027208 0  0.02 0.0007200000000029232 0  0.02 0.0004800000000019476 0  0.02 0.0002400000000009738 0  0.01976190476190379 0 0  0.0195238095238076 0 0  0.01928571428571281 0 0  0.01904761904761866 0 0  0.01880952380952451 0 0  0.01857142857143036 0 0  0.01833333333333621 0 0  0.01809523809524206 0 0  0.01785714285714791 0 0  0.01761904761905376 0 0  0.01738095238095961 0 0  0.01714285714286546 0 0  0.01690476190477131 0 0  0.01666666666667694 0 0  0.01642857142858176 0 0  0.01619047619048657 0 0  0.01595238095239139 0 0  0.01571428571429621 0 0  0.0154761904762007 0 0  0.01523809523810551 0 0  0.01500000000001066 0 0  0.01476190476191651 0 0  0.01452380952382236 0 0  0.01428571428572822 0 0  0.01404761904763407 0 0  0.01380952380953992 0 0  0.01357142857144577 0 0  0.01333333333335162 0 0  0.01309523809525747 0 0  0.01285714285716308 0 0  0.01261904761906799 0 0  0.01238095238097281 0 0  0.01214285714287772 0 0  0.01190476190478333 0 0  0.01166666666668918 0 0  0.01142857142859503 0 0  0.01119047619050029 0 0  0.01095238095240511 0 0  0.01071428571430993 0 0  0.01047619047621507 0 0  0.0102380952381209 0 0  0.01000000000002641 0 0  0.009761904761930536 0 0  0.009523809523834321 0 0  0.0092857142857383 0 0  0.009047619047642974 0 0  0.008809523809547793 0 0  0.008571428571452176 0 0  0.008333333333355961 0 0  0.008095238095259746 0 0  0.00785714285716353 0 0  0.007619047619067313 0 0  0.0073809523809711 0 0  0.007142857142875417 0 0  0.006904761904780237 0 0  0.006666666666684943 0 0  0.006428571428588954 0 0  0.006190476190492738 0 0  0.005952380952396523 0 0  0.005714285714300309 0 0  0.005476190476204094 0 0  0.00523809523810854 0 0  0.00500000000001336 0 0  0.004761904761918179 0 0  0.004523809523822626 0 0  0.004285714285726411 0 0  0.004047619047630201 0 0  0.003809523809533987 0 0  0.003571428571437774 0 0  0.003333333333341564 0 0  0.00309523809524535 0 0  0.00285714285714914 0 0  0.002619047619052926 0 0  0.002380952380956713 0 0  0.002142857142861564 0 0  0.001904761904767415 0 0  0.001666666666673037 0 0  0.001428571428577278 0 0  0.001190476190481061 0 0  0.0009523809523848542 0 0  0.0007142857142886372 0 0  0.0004761904761924236 0 0  0.0002380952380962136 0 0  0.01318447728116931 0.0002054724756376096 0  0.00703571411504737 0.01179297346886515 0  0.009393957111202857 0.01178566829002903 0  0.01152411987223061 0.0002073705854719248 0  0.008209442714565999 0.0002293661341580651 0  0.006071428571444631 0.0002061965247114262 0  0.01252387159300391 0.01177721496147268 0  0.009864279959895488 0.0002092373795933997 0  0.01978984669846277 0.006132080769979573 0  0.0001918594623178119 0.006117810553728187 0  0.01418376177829061 0.01177611392099403 0  0.005373436206076422 0.01179331958565476 0  0.01085720811379693 0.01178395844817033 0  0.0146509645290248 0.0001956879809415279 0  0.0001755752538913103 0.00465949515529163 0  0.01978834567063831 0.004691789003433425 0  0.004631698329186475 0.0002047751934267602 0  0.01979087220358429 0.00756550010833225 0  0.0001995340756551599 0.007560008952131378 0  0.01558464754944247 0.01178986332668023 0  0.01605275139821281 0.0002042521088142625 0  0.003899937430954314 0.01178964579439611 0  0.00824045576413213 0.01179344211650992 0  0.0002078460969076221 0.003479999999991815 0  0.01978850594531548 0.003483415399629333 0  0.003424002220657234 0.0002053618445880372 0  0.01979254977368636 0.008765185815844821 0  0.0002079873092101698 0.008760161881310976 0  0.01678154229018126 0.01182442607549297 0  0.01727274415307985 0.0002248925371768773 0  0.002738095238090106 0.01179380347529011 0  0.01979215390309125 0.002520000000007523 0  0.0002078460969076217 0.002519999999994515 0  0.007262304885843406 0.0002024697694887917 0  0.00250000000000482 0.0002061965247109642 0  0.01979217402745079 0.009720102811022679 0  0.0002078532362884826 0.009719922724330445 0  0.01775621868387764 0.01178849440176412 0  0.0182169689601969 0.0001933026553644993 0  0.001788515484759992 0.01178939860996305 0  0.000200155249136635 0.001559925009654356 0  0.01978715651190513 0.001563831723424565 0  0.001569046683787388 0.0002108820145028341 0  0.01979217582511283 0.01068026059139825 0  0.0002081382544979005 0.01044048350356933 0  0.01979155267337484 0.006843404395469016 0  0.000187968684013261 0.005389055003690767 0  0.01979011858049167 0.005410500294388559 0  0.0001882816162553076 0.006828930252360772 0  0.009160250026290132 0.0002020789092408286 0  0.01082190557937627 0.0002015672655486539 0  0.01248354193408898 0.0002006047011554212 0  0.006330972935302184 0.01178523861319707 0  0.01175621854128248 0.01177775247620325 0  0.0139558814926981 0.0002048302144585014 0  0.01009626095885685 0.01177807292970702 0  0.01322663902696712 0.0
[...]
<PointData  Scalars="VMS [Pa]"> 
<DataArray  type="Float64"  Name="VMS [Pa]"  format="ascii">9.4337437901213276e+05  6.5466226592333174e+08  6.5838980744826782e+08  1.0232492242822052e+06  1.1414156201002689e+06  1.2153401195681065e+06  1.3452776012708747e+06  1.7217423453867177e+06  2.2372581107989601e+06  2.5807067461271188e+06  2.4979150972448583e+06  2.1388242984668212e+06  2.2031209023604705e+06  2.4848327489213054e+06  2.3758270624253536e+06  1.8314014064576114e+06  1.1664735128044293e+06  1.0569439805223083e+06  1.2689982206868965e+06  1.8457222147517037e+06  2.5173563488722597e+06  3.2550757220068658e+06  4.0938865769997900e+06  4.9908110461486932e+06  6.0776227342043268e+06  6.9100920485070376e+06  7.8406068096665153e+06  8.9750321338702813e+06  1.0059171794708455e+07  1.1315144723850353e+07  1.2393864893475302e+07  1.3604558211132802e+07  1.4875251132977042e+07  1.6194670969611939e+07  1.7769395591205742e+07  1.9416274745566357e+07  2.1008528592299704e+07  2.2970531714356583e+07  2.5009310793619428e+07  2.7172332765416604e+07  2.9759273113936611e+07  3.2611855691498708e+07  3.5984805175233945e+07  3.9958588025837146e+07  4.4721919175016060e+07  5.0580570612350397e+07  5.7995077342324115e+07  6.7707304931530014e+07  8.1689032631878331e+07  1.0059697714604352e+08  1.3608913748040420e+08  1.8860448496330863e+08  1.9762690338864389e+08  5.0205686148179758e+08  2.9563380882552725e+08  2.0575800364078477e+08  1.6002986779926625e+08  1.2995705185148577e+08  1.0815722030866539e+08  9.2198561048284322e+07  8.0964347849569783e+07  7.1628508032801092e+07  6.5221143115016587e+07  5.9268394715839438e+07  5.4863764213180996e+07  5.0688543049823672e+07  4.7818108567306027e+07  4.4581956066414662e+07  4.3023587242663488e+07  4.0325838052425712e+07  3.8597934631578252e+07  3.7178462308677062e+07  3.5525312397132434e+07  3.4793909231255107e+07  3.3470272361794420e+07  3.2552513355177619e+07  3.1773225404691022e+07  3.0992443057967018e+07  3.0445664569243491e+07  2.9693269377022363e+07  2.9381117052482110e+07  2.8860504486557532e+07  2.8448459186681129e+07  2.8191631333780002e+07  2.7746656988904279e+07  2.7569471636854064e+07  2.7331925039949398e+07  2.7174527008854654e+07  2.6991525536971167e+07  2.6839589863800842e+07  2.6769571841900676e+07  2.6629389513994724e+07  2.6605600587013520e+07  2.6492651871676259e+07  2.6505712115765058e+07  2.6593052947813410e+07  2.6528127080640320e+07  2.6692314732624251e+07  2.6743499885301039e+07  2.6829267236488931e+07  2.7007356047050942e+07  2.7050555909594335e+07  2.7382119897937622e+07  2.7549306439316921e+07  2.7835708695862941e+07  2.8156617940479487e+07  2.8349940180350441e+07  2.8913357375822891e+07  2.9303455743237890e+07  2.9841695648980685e+07  3.0381579300782636e+07  3.0997580927079767e+07  3.1900959296694830e+07  3.2367988078775153e+07  3.3596422398929045e+07  3.4534322181389101e+07  3.5821181302289918e+07  3.7022347192035377e+07  3.8388700918766253e+07  4.0575353192095250e+07  4.2595032989544012e+07  4.5102546709598809e+07  4.7659988971465014e+07  5.1086367839025006e+07  5.4479398118844882e+07  5.8608292846297681e+07  6.5356187116400003e+07  7.1692719004174754e+07  8.1066323664870888e+07  9.1010719684314892e+07  1.0492930357177722e+08  1.3370210727930178e+08  1.5977836846590120e+08  2.1800207436480838e+08  3.3199758997700822e+08  4.6289959137535590e+08  1.9119796200750297e+08  1.8972374464046794e+08  1.3538225554252139e+08  1.0138140019861457e+08  8.1496309237025410e+07  6.7789389244733736e+07  5.7886434531825460e+07  5.0490347040437818e+07  4.4662171718897864e+07  3.9923128461306557e+07  3.6006821593780547e+07  3.2669557748840112e+07  2.9789428102026954e+07  2.7247453052769020e+07  2.4932711080416709e+07  2.2908692351054288e+07  2.1058351623223163e+07  1.9355459833920047e+07  1.7748593637685634e+07  1.6301746631408133e+07  1.4909418530186657e+07  1.3611787379006123e+07  1.2334058003883960e+07  1.1177489956542743e+07  1.0034438620556602e+07  8.9571750306701679e+06  7.9209756130850520e+06  6.9260237081445353e+06  5.9330872428596914e+06  5.0462079300127877e+06  4.1169056248209756e+06  3.2853182438968755e+06  2.4831920572825838e+06  1.7433548051429931e+06  1.2007308596829018e+06  9.7873363410116534e+05  1.0491325520887503e+06  1.7656217175276757e+06  2.3390165236660787e+06  2.4619857253751867e+06  2.1649355848347275e+06  2.1198121317020729e+06  2.5032852264990876e+06  2.5177841447703089e+06  2.1094186702766726e+06  1.7592164647166736e+06  1.3632939659560618e+06  1.2397498545793649e+06  1.2251265861803715e+06  7.5163652204688813e+05  8.2661057053236756e+05  9.3475069939315575e+05  1.1328222361441925e+06  1.0070047580868492e+06  1.2730321579507757e+06  1.3949144247701643e+06  1.6091474731473776e+06  1.6974229168237450e+06  1.8821676814884527e+06  2.0637598761474655e+06  2.3779309119264609e+06  2.6042422481083027e+06  2.8799389656709419e+06  3.2557800306429118e+06  3.5607353272199845e+06  3.8886542329785889e+06  4.0724192112990911e+06  4.7623754371440411e+06  5.1427155064130165e+06  5.5998652427984485e+06  5.7433948124540159e+06  6.2093639423843455e+06  6.5754160503892377e+06  6.8037100559989167e+06  7.3582122782390658e+06  7.6242364702415997e+06  7.9475805198504245e+06  8.2216791708400566e+06  8.4291496993538346e+06  8.7853368752750885e+06  8.9588878349559680e+06  9.1880655431450140e+06  9.3884117974084895e+06  9.5430355462115519e+06  9.6652381685148608e+06  9.7255473023769297e+06  9.9228731121267080e+06  9.9497914999607783e+06  1.0022801610527076e+07  1.0050215627548728e+07  1.0092006463154856e+07  1.0030129475912744e+07  9.9858098936170768e+06  9.9852434223661516e+06  9.9029871406081244e+06  9.8159548296619207e+06  9.6587727883663494e+06  9.5180689721278716e+06  9.3231887696601041e+06  9.1537087880264092e+06  8.9872216539199855e+06  8.7505790834944863e+06  8.5453254124141037e+06  8.0825995720172971e+06  7.9392801406761194e+06  7.6137884633224355e+06  7.3050977797346395e+06  6.9452081400940940e+06  6.6101096111228717e+06  6.2931218662049435e+06  5.6678933417749908e+06  5.4371854273379399e+06  5.0689996031440347e+06  4.6718041405227827e+06  4.3993613500218736e+06  3.7361994597337507e+06  3.5122306813813457e+06  3.2196156256194925e+06  2.9172977380496538e+06  2.5863294649752411e+06  2.3803758312814101e+06  2.0992576778875021e+06  1.9276694915468395e+06  1.8045003508998840e+06  1.3569094595404568e+06  1.2983366966804808e+06  1.3319477939847964e+06  9.3580339239696972e+05  9.7044030658220570e+05  7.0422992352395586e+05  9.0927067453966290e+05  7.9679150158566353e+05  7.7216461316288607e+06  2.8326550915232237e+07  2.6306599483666863e+07  9.0594665292126425e+06  8.7647754001511186e+06  6.7152786846257765e+06  2.7609993871265925e+07  9.4239174394091889e+06  1.0168464943495469e+07  1.0177204231374858e+07  3.0862467631825555e+07  3.2461558417193059e+07  2.6355403966542114e+07  5.9262131398569345e+06  4.6936554260379337e+06  4.8167528413623702e+06  4.8301820834532706e+06  1.7084099069428459e+07  1.7172094138413038e+07  3.7087771189986452e+07  3.7755800847857445e+06  4.0548950129759058e+07  2.6896554886743497e+07  1.3891009269219013e+06  1.5942358528790518e+06  3.1778560403854302e+06  2.5395277147706926e+07  2.5362838442081053e+07  4.7697662879691951e+07  2.2762833733566646e+06  5.4315178553672545e+07  9.4064497172566713e+05  1.0097146861663267e+06  8.1188146645184616e+06  2.1144819756469876e+06  3.5588684974452503e+07  3.5576346275617510e+07  6.4095549711980820e+07  1.5583474965881319e+06  7.8286288865678489e+07  1.4282559200496769e+06  1.4347791737821009e+06  1.5593305809540960e+06  5.2141277262856945e+07  4.7309586876090489e+07  1.3343130325756332e+07  7.2346359723131415e+06  7.3522881265787557e+06  1.3299259162876936e+07  9.3620951948933918e+06  9.3805635649026353e+06  8.3781367025178494e+06  2.9566908849531341e+07  2.6857501065547973e+07  6.7740114806135278e+06  2.6203423157420311e+07  2.8662065906328332e+07  4.6999381597440597e+06  3.5462874599333160e+07  5.7622710824111709e+06  3.3287217014686391e+07  8.8895150294576064e+07  1.2812594895881719e+06  1.1328803387585521e+08  1.2831988798135056e+06  1.3416333025753908e+08  1.3811380867399718e+06  6.1364655067470238e+07  1.3463485767456267e+06  1.8475253433576801e+06  5.9645451957947031e+07  1.7682954386859501e+06  4.3010571976710699e+07  9.1623888666846429e+05  2.6641023754340857e+06  1.0703924077556117e+06  2.1782895323528454e+07  2.9874754075271543e+07  2.1705485570211425e+07  2.9878729956091493e+07  2.5599548220100868e+06  2.6421951005691275e+07  7.3593598668980841e+06  2.7561951655796938e+07  9.4444089142938703e+06  2.6564133457945459e+07  8.5179750612235889e+06  8.7386906004759148e+06  9.1585811024530958e+06  2.9590646121592727e+07  3.0937736109285250e+07  4.0608117337634340e+06  3.0080946960620945e+06  4.0280305118823849e+07  4.4424678825808190e+07  2.5587218940335973e+06  5.4136381087129831e+07  6.4258221861446902e+07  1.8299808292089233e+06  1.8104136379380156e+06  1.3061577272443047e+06  1.6664863253513590e+08  5.3593176421787187e+07  1.0474859542359605e+06  1.1315430921071875e+06  5.4556660843318984e+07  4.5857590011487827e+07  1.5188988258384820e+07  2.2091861361919723e+07  1.4308449380924717e+07  7.5595784255095879e+06  2.0764343474022560e+07  6.0788573227533922e+06  2.4164139263265036e+07  9.9207093617163654e+06  2.4124305761011187e+07  1.3497407039194712e+07  2.3409361330442544e+07  1.4671739947388684e+07  2.2447988677059181e+07  1.4895299262172380e+07  2.1387092286120944e+07  1.4853588389178120e+07  2.0086049804963645e+07  1.4458698045119792e+07  1.8761072340915758e+07  1.3931764376870416e+07  1.7684426198672872e+07  1.3369700443565333e+07  1.6572730604793128e+07  1.2706530055693235e+07  1.5477054551886594e+07  1.2054949679461204e+07  1.4588853117416758e+07  1.1461408804452781e+07  1.3746817306363212e+07  1.0871953651566884e+07  1.2899204800124338e+07  1.0291105708027953e+07  1.2179590233065160e+07  9.7733943453068212e+06  1.1517618520777466e+07  9.2742625864976440e+06  1.0865322521600386e+07  8.8173862347522099e+06  1.0309789845657766e+07  8.3997683240975235e+06  9.8033580958179198e+06  8.0105120213185679e+06  9.3253041211729273e+06  7.6546648788289158e+06  8.8883672873512935e+06  7.3210646889846465e+06  8.4684451081441473e+06  7.0083603570353827e+06  8.1067116242511971e+06  6.7194821612454876e+06  7.7671207860537451e+06  6.4526068898682138e+06  7.4406365393336685e+06  6.1955437818632927e+06  7.1230625264892057e+06  5.9514526921312613e+06  6.8407385437253471e+06  5.7087103999922052e+06  6.5539946318991603e+06  5.4756968085062029e+06  6.2712171675460562e+06  4.6970573465987723e+06  5.2458914347153725e+06  5.9889497115026200e+06  5.0123512583976882e+06  5.7161955761830583e+06  4.7845765817777552e+06  5.4577274237221396e+06  4.5542336687994283e+06  5.1937255197976148e+06  4.3193123627552511e+06  4.9255946657387922e+06  4.0820145371993710e+06  4.6566362633095486e+06  3.5273069537419458e+06  3.8382710435813684e+06  4.3838457052092021e+06  3.5921236892882641e+06  4.1244394253154122e+06  3.3436299489482483e+06  3.8295091382410219e+06  3.0833859447059929e+06  3.5415385716054514e+06  5.6873708606678639e+06  2.8234948452140726e+06  3.2502788519165651e+06  2.5626708712881329e+06  2.9519852863514926e+06  2.4310644648660994e+06  2.2976786911264705e+06  2.6593960597636797e+06  2.0421767256816358e+06  2.3760808799893060e+06  1.8002577013351687e+06  2.0819987865569333e+06  2.7180742647936116e+06  2.3933174316423764e+06  1.8169274338582421e+06  2.0884490313098454e+06  2.7256060311081395e+06  2.3873446267803530e+06  1.8107618172599021e+06  2.0653075024771707e+06  2.7030693142832019e+06  2.3331140448043612e+06  1.7815872308329465e+06  2.0078868206170870e+06  2.6086947517675371e+06  2.2564013227439928e+06  1.7395366127091423e+06  1.9333339336813705e+06  2.4954081884878022e+06  2.1430159773899047e+06  1.6983120176914253e+06  1.8563043150700834e+06  2.3474334267336624e+06  2.0205033373761957e+06  1.6824524319095933e+06  1.8012963745647618e+06  2.1860748248715652e+06  1.9258362680951126e+06  1.7276041186508841e+06  1.8050893665666908e+06  2.0521582727050385e+06  1.8926579534470653e+06  1.8698735873029912e+06  1.9181950458725407e+06  1.9673908236815436e+06  1.9723030401153057e+06  2.1232591589065916e+06  2.1573494312782856e+06  2.0251401110126206e+06  2.1924895173430815e+06  2.4881705359953637e+06  2.5310754795108321e+06  2.2257058996651494e+06  2.8917276363866730e+06  2.9399246385831558e+06  3.3353977415734078e+06  3.3963900462064915e+06  3.7902826666963804e+06  4.3384465005962253e+06  3.8736145663195937e+06  4.2404775222756835e+06  4.1553179473779481e+06  4.5720346002662275e+06  6.9799787494383557e+06  4.4906951092593437e+06  4.6729000831889240e+06  4.9668517153275153e+06  5.0766145442258483e+06  5.3263491391694108e+06  5.8416271179847606e+06  5.4488343593216585e+06  5.6526466683582161e+06  5.7809838643316459e+06  5.9343219362083040e+06  5.8243543438088214e+06  6.0575170476061329e+06  1.5667257907948089e+06  5.5898531220710212e+06  5.9713774140089266e+06  5.9324478792610541e+06  5.7518545663146349e+06  7.0520885545569612e+06  6.1599314923319453e+06  6.0999713348934064e+06  6.1064656953983065e+06  5.9378268285656357e+06  8.3530937256700397e+06  6.2496208784309207e+06  6.2985212676829770e+06  6.1414463001508778e+06  6.2211854071575357e+06  8.3990040689347386e+06  6.3354868888396453e+06  6.3518863100374835e+06  6.5133691143630249e+06  6.3615586676444793e+06  6.3404152275038352e+06  6.4043354553058613e+06  6.4040971295402609e+06  6.7447036586900977e+06  6.5987310180311371e+06  6.4260438248583060e+06  6.4057244437881736e+06  6.1458546879498428e+06  6.3858757571190130e+06  5.8586956339037819e+06  6.0953567780654225e+06  5.4978017285678368e+06  5.7274178668715870e+06  5.0597688940512603e+06  5.2775139575600363e+06  4.5428288782463530e+06  4.7401457983918246e+06  3.9576044591969801e+06  4.1267627057027919e+06  3.3305115856576245e+06  3.4602041282050852e+06  2.7351898351026052e+06  2.8126633083731956e+06  2.3888264722727397e+06  2.4062656801138124e+06  2.6189312718589762e+06  2.6199190027008890e+06  3.4758942598764016e+06  3.5316444445930691e+06  3.4140236800685148e+06  4.6333026876101131e+06  4.4864507505212016e+06  5.9023091616226519e+06  5.6686604192774994e+06  7.2035832013996746e+06  6.8870657518771086e+06  8.4913458899611793e+06  8.1051696901621791e+06  6.4001047140181344e+06  6.3562064317465490e+06  2.4269587660645223e+06  5.9715740842122342e+06  6.9897929389118347e+06  1.0070003405795213e+07  9.7497098583089840e+06  9.2913005095009189e+06  8.9278300969479103e+06  6.3257547208523024e+06  6.2530011757475464e+06  1.0958903931017689e+07  1.0437175385892937e+07  6.4218784070787486e+06  6.2053041360520795e+06  6.1002203099607658e+06  9.7067682895108815e+06  1.2111095561475188e+07  1.1536406787347842e+07  6.0395271267018570e+06  5.8934145504137622e+06  1.3202304742493456e+07  1.2582586689994538e+07  1.1006789946752630e+07  1.2009955355202559e+07  1.3572956933626942e+07  1.2963353548028879e+07  1.1474597536549261e+07  1.2392876014317872e+07  1.3881433913140012e+07  1.3283559377781970e+07  1.1861883938202972e+07  1.2707950301013496e+07  1.4110954055983867e+07  1.3527462204346903e+07  1.2178543084037714e+07  1.2965981214896761e+07  1.4297883480065007e+07  1.3712620209024319e+07  1.2432532075076099e+07  1.3165681234141404e+07  1.4446307527601501e+07  1.3887558681274492e+07  1.2641230229038322e+07  1.3332975691822935e+07  1.4577635404513055e+07  1.4015396901751386e+07  1.2802180442048462e+07  1.3455370873640114e+07  1.4653937866859492e+07  1.4096023413305854e+07  1.2927277677904494e+07  1.3539423199392281e+07  1.4715965750500143e+07  1.4173512994444925e+07  1.3012763514818223e+07  1.3604134577776633e+07  1.4758357360129725e+07  1.4205347791739969e+07  1.3065779407533944e+07  1.3640350489942553e+07  1.4769491923468228e+07  1.4208288039652316e+07  5.8323907002662262e+06  5.6421199712051740e+06  5.7860427137305122e+06  1.5338894505683387e+07  1.4773537231752649e+07  1.2395794781373531e+07  6.2140061184684839e+06  6.3647748520196015e+06  6.2234433939318703e+06  6.4045064580005426e+06  6.2504748317243448e+06  6.4571371003909931e+06  6.2937857764919847e+06  6.5211350092035998e+06  6.3490195322570801e+06  6.5953143841209281e+06  6.4135920599310286e+06  6.7505832201633276e+06  6.6778933297879659e+06  6.4897504351120275e+06  6.7652727113700807e+06  6.5745619031561920e+06  6.2795295050159758e+06  6.3608128974852543e+06  6.0474316838166919e+06  6.1286748779269001e+06  6.4575639535241481e+06  6.2243428381496035e+06  5.8793332720328299e+06  5.9758970181159237e+06  6.3327945853851112e+06  6.0866640843556486e+06  5.7136597832071101e+06  5.8272575363202589e+06  6.2092937631112309e+06  5.9584283353351504e+06  5.5587465254972912e+06  5.6920441713011749e+06  6.0968564668508219e+06  5.8371895016922494e+06  5.4228049135397533e+06  5.5773081793410107e+06  5.9996150598411402e+06  5.7459551784237679e+06  5.3129515505602388e+06  5.4896157127158800e+06  5.9268716232781075e+06  5.6784461117949169e+06  5.2332693047256833e+06  5.4305785000642138e+06  5.8772288466551807e+06  5.6389226955564581e+06  5.1866612310820082e+06  5.4031485640357034e+06  5.8536796947760740e+06  5.6327444639594834e+06  1.3876203913080422e+07  5.1752252006783728e+06  5.4077218627256276e+06  5.8599726823509056e+06  5.6471149233158510e+06  5.1991816269648205e+06  5.4480770437314929e+06  5.8886274118086500e+06  5.6994922778220689e+06  5.2584261650101654e+06  5.5191028376220576e+06  5.0809250772419367e+06  5.3508527959603667e+06  4.9169105024895277e+06  5.1959255007808544e+06  5.6162119467323767e+06  5.4714842308742721e+06  5.0549797276450433e+06  5.3384767691214178e+06  4.9293416971980445e+06  5.2200900840947218e+06  4.8185501209998922e+06  5.1171863292427976e+06  5.5030914219983798e+06  5.4055730459857630e+06  5.0270311081407042e+06  5.3225871128816288e+06  4.9533945494158380e+06  5.2540119022445008e+06  4.8967858947551334e+06  5.2006687300854763e+06  4.8547610179520482e+06  5.1627254787827907e+06  5.4864862635909971e+06  5.4504314990099594e+06  5.1404230231009694e+06  5.4296548183534797e+06  5.1343248837374868e+06  5.4250623231502147e+06  5.6930627926708013e+06  5.6872939602657426e+06  5.4376589975223504e+06  5.6987777681637425e+06  5.4683703308044430e+06  5.7287026535486747e+06  5.5185029797033388e+06  5.7784101185556371e+06  5.9514642105411282e+06  5.9980166487780977e+06  5.8494522720302697e+06  6.0664577318065148e+06  5.9432364702866608e+06  6.1588917563332478e+06  6.0602221092064437e+06  6.2367624336759578e+06  6.3242495640980024e+06  6.3570487907217657e+06  6.4368465463393563e+06  6.4244395374072567e+06  6.4928912385401241e+06  6.4385553212716002e+06  6.4941689748304980e+06  6.5936916335980184e+06  6.3955000184171284e+06  6.3906736969222035e+06  6.3139300292561101e+06  6.4360749988807505e+06  6.3629820141364653e+06  6.2644871698883353e+06  5.7750198874677317e+06  6.3687314432503004e+06  6.2590676569015123e+06  6.4159546956229536e+06  6.3027169573083119e+06  6.1088787565300241e+06  5.5842869111075504e+06  5.3455950172937494e+06  5.8373804285296602e+06  1.5908274088808123e+07  1.5326013614042681e+07  1.2522648964466097e+07  5.3035156069335500e+06  6.1486559391192803e+06  5.9214030768677071e+06  6.4914026286234129e+06  5.4564760571282385e+06  4.5301260934150033e+06  1.6479281238105958e+07  1.5914859014815507e+07  1.4758346802207602e+07  1.5308387651826026e+07  1.6457211253978323e+07  1.5872386577129582e+07  1.4171373987899886e+07  5.0116490553088784e+06  6.5789189608780481e+06  5.7955842127380585e+06  5.9332147246551504e+06  5.6166648895669207e+06  5.7686402188994465e+06  5.3991203443589499e+06  5.5609722528662765e+06  5.1374410519594783e+06  5.3028716890627909e+06  5.7420242091786768e+06  5.4867691237452449e+06  5.9415178998784181e+06  5.6876261998147611e+06  6.1603500798932575e+06  5.9053364779326264e+06  6.3925380018408159e+06  6.1388018901427137e+06  6.6390252488387153e+06  6.3861147903844453e+06  6.8989250380038423e+06  6.6492958534216899e+06  7.1704139889884377e+06  6.9233748960375637e+06  7.456363806