<?xml version="1.0"?>
<VTKFile type="UnstructuredGrid"  version="0.1"  >
<UnstructuredGrid>
<Piece  NumberOfPoints="105" NumberOfCells="160">
<Points>
<DataArray  type="Float64"  NumberOfComponents="3"  format="ascii">0 0 0  0.001 0 0  0.002 0 0  0.003 0 0  0.004 0 0  0.005 0 0  0.006 0 0  0.007000000000000001 0 0  0.008 0 0  0.008999999999999999 0 0  0.01 0 0  0.011 0 0  0.012 0 0  0.013 0 0  0.014 0 0  0.015 0 0  0.016 0 0  0.017 0 0  0.018 0 0  0.019 0 0  0.02 0 0  0 0.003 0  0.001 0.003 0  0.002 0.003 0  0.003 0.003 0  0.004 0.003 0  0.005 0.003 0  0.006 0.003 0  0.007000000000000001 0.003 0  0.008 0.003 0  0.008999999999999999 0.003 0  0.01 0.003 0  0.011 0.003 0  0.012 0.003 0  0.013 0.003 0  0.014 0.003 0  0.015 0.003 0  0.016 0.003 0  0.017 0.003 0  0.018 0.003 0  0.019 0.003 0  0.02 0.003 0  0 0.006 0  0.001 0.006 0  0.002 0.006 0  0.003 0.006 0  0.004 0.006 0  0.005 0.006 0  0.006 0.006 0  0.007000000000000001 0.006 0  0.008 0.006 0  0.008999999999999999 0.006 0  0.01 0.006 0  0.011 0.006 0  0.012 0.006 0  0.013 0.006 0  0.014 0.006 0  0.015 0.006 0  0.016 0.006 0  0.017 0.006 0  0.018 0.006 0  0.019 0.006 0  0.02 0.006 0  0 0.009000000000000001 0  0.001 0.009000000000000001 0  0.002 0.009000000000000001 0  0.003 0.009000000000000001 0  0.004 0.009000000000000001 0  0.005 0.009000000000000001 0  0.006 0.009000000000000001 0  0.007000000000000001 0.009000000000000001 0  0.008 0.009000000000000001 0  0.008999999999999999 0.009000000000000001 0  0.01 0.009000000000000001 0  0.011 0.009000000000000001 0  0.012 0.009000000000000001 0  0.013 0.009000000000000001 0  0.014 0.009000000000000001 0  0.015 0.009000000000000001 0  0.016 0.009000000000000001 0  0.017 0.009000000000000001 0  0.018 0.009000000000000001 0  0.019 0.009000000000000001 0  0.02 0.009000000000000001 0  0 0.012 0  0.001 0.012 0  0.002 0.012 0  0.003 0.012 0  0.004 0.012 0  0.005 0.012 0  0.006 0.012 0  0.007000000000000001 0.012 0  0.008 0.012 0  0.008999999999999999 0.012 0  0.01 0.012 0  0.011 0.012 0  0.012 0.012 0  0.013 0.012 0  0.014 0.012 0  0.015 0.012 0  0.016 0.012 0  0.017 0.012 0  0.018 0.012 0  0.019 0.012 0  0.02 0.012 0  </DataArray>
</Points>
<Cells>
<DataArray  type="UInt32"  Name="connectivity"  format="ascii">0 1 22  0 21 22  1 2 23  1 22 23  2 3 24  2 23 24  3 4 25  3 24 25  4 5 26  4 25 26  5 6 27  5 26 27  6 7 28  6 27 28  7 8 29  7 28 29  8 9 30  8 29 30  9 10 31  9 30 31  10 11 32  10 31 32  11 12 33  11 32 33  12 13 34  12 33 34  13 14 35  13 34 35  14 15 36  14 35 36  15 16 37  15 36 37  16 17 38  16 37 38  17 18 39  17 38 39  18 19 40  18 39 40  19 20 41  19 40 41  21 22 43  21 42 43  22 23 44  22 43 44  23 24 45  23 44 45  24 25 46  24 45 46  25 26 47  25 46 47  26 27 48  26 47 48  27 28 49  27 48 49  28 29 50  28 49 50  29 30 51  29 50 51  30 31 52  30 51 52  31 32 53  31 52 53  32 33 54  32 53 54  33 34 55  33 54 55  34 35 56  34 55 56  35 36 57  35 56 57  36 37 58  36 57 58  37 38 59  37 58 59  38 39 60  38 59 60  39 40 61  39 60 61  40 41 62  40 61 62  42 43 64  42 63 64  43 44 65  43 64 65  44 45 66  44 65 66  45 46 67  45 66 67  46 47 68  46 67 68  47 48 69  47 68 69  48 49 70  48 69 70  49 50 71  49 70 71  50 51 72  50 71 72  51 52 73  51 72 73  52 53 74  52 73 74  53 54 75  53 74 75  54 55 76  54 75 76  55 56 77  55 76 77  56 57 78  56 77 78  57 58 79  57 78 79  58 59 80  58 79 80  59 60 81  59 80 81  60 61 82  60 81 82  61 62 83  61 82 83  63 64 85  63 84 85  64 65 86  64 85 86  65 66 87  65 86 87  66 67 88  66 87 88  67 68 89  67 88 89  68 69 90  68 89 90  69 70 91  69 90 91  70 71 92  70 91 92  71 72 93  71 92 93  72 73 94  72 93 94  73 74 95  73 94 95  74 75 96  74 95 96  75 76 97  75 96 97  76 77 98  76 97 98  77 78 99  77 98 99  78 79 100  78 99 100  79 80 101  79 100 101  80 81 102  80 101 102  81 82 103  81 102 103  82 83 104  82 103 104  </DataArray>
<DataArray  type="UInt32"  Name="offsets"  format="ascii">3 6 9 12 15 18 21 24 27 30 33 36 39 42 45 48 51 54 57 60 63 66 69 72 75 78 81 84 87 90 93 96 99 102 105 108 111 114 117 120 123 126 129 132 135 138 141 144 147 150 153 156 159 162 165 168 171 174 177 180 183 186 189 192 195 198 201 204 207 210 213 216 219 222 225 228 231 234 237 240 243 246 249 252 255 258 261 264 267 270 273 276 279 282 285 288 291 294 297 300 303 306 309 312 315 318 321 324 327 330 333 336 339 342 345 348 351 354 357 360 363 366 369 372 375 378 381 384 387 390 393 396 399 402 405 408 411 414 417 420 423 426 429 432 435 438 441 444 447 450 453 456 459 462 465 468 471 474 477 480 </DataArray>
<DataArray  type="UInt8"  Name="types"  format="ascii">5 5 5 5 5 5 5 5 5 5 5 5 5 5 5 5 5 5 5 5 5 5 5 5 5 5 5 5 5 5 5 5 5 5 5 5 5 5 5 5 5 5 5 5 5 5 5 5 5 5 5 5 5 5 5 5 5 5 5 5 5 5 5 5 5 5 5 5 5 5 5 5 5 5 5 5 5 5 5 5 5 5 5 5 5 5 5 5 5 5 5 5 5 5 5 5 5 5 5 5 5 5 5 5 5 5 5 5 5 5 5 5 5 5 5 5 5 5 5 5 5 5 5 5 5 5 5 5 5 5 5 5 5 5 5 5 5 5 5 5 5 5 5 5 5 5 5 5 5 5 5 5 5 5 5 5 5 5 5 5 </DataArray>
</Cells>
<PointData  Vectors="U [m]"> 
<DataArray  type="Float64"  Name="U [m]"  NumberOfComponents="3" format="ascii">-3.9005772046547424e-06 -3.0976809058196302e-05 0.0000000000000000e+00  -3.7125317887545955e-06 -2.9843355251282864e-05 0.0000000000000000e+00  -3.4625950119114649e-06 -2.9010630310865007e-05 0.0000000000000000e+00  -3.1237255710967087e-06 -2.8428558806579988e-05 0.0000000000000000e+00  -2.6874376412181033e-06 -2.8029673172116607e-05 0.0000000000000000e+00  -2.1575286819161850e-06 -2.7751609570524105e-05 0.0000000000000000e+00  -1.5449793949778809e-06 -2.7544570317390521e-05 0.0000000000000000e+00  -8.6441908653816717e-07 -2.7371985925460006e-05 0.0000000000000000e+00  -1.3198265350460319e-07 -2.7208658965277982e-05 0.0000000000000000e+00  6.3576738986286059e-07 -2.7038446353554206e-05 0.0000000000000000e+00  1.4221738391191983e-06 -2.6852390661933317e-05 0.0000000000000000e+00  2.2103425325385812e-06 -2.6647670032948623e-05 0.0000000000000000e+00  2.9827527416143242e-06 -2.6427503551432481e-05 0.0000000000000000e+00  3.7208402502239679e-06 -2.6202043213051749e-05 0.0000000000000000e+00  4.4048203730484069e-06 -2.5990173485694479e-05 0.0000000000000000e+00  5.0141480556146379e-06 -2.5821882736461525e-05 0.0000000000000000e+00  5.5292616282768644e-06 -2.5740258761693704e-05 0.0000000000000000e+00  5.9356352513376583e-06 -2.5800910139472499e-05 0.0000000000000000e+00  6.2314404192575407e-06 -2.6064676429786885e-05 0.0000000000000000e+00  6.4388650968030744e-06 -2.6578866020335290e-05 0.0000000000000000e+00  6.6099290701253548e-06 -2.7355133939893473e-05 0.0000000000000000e+00  -7.7485620005061429e-06 -2.9915991685555265e-05 0.0000000000000000e+00  -7.1036005060064129e-06 -2.8820119758232453e-05 0.0000000000000000e+00  -6.3813924015296212e-06 -2.8128956172724103e-05 0.0000000000000000e+00  -5.5882000613939307e-06 -2.7707574486401549e-05 0.0000000000000000e+00  -4.7400233066841570e-06 -2.7452754519742466e-05 0.0000000000000000e+00  -3.8529702072377370e-06 -2.7291123025006418e-05 0.0000000000000000e+00  -2.9399397886231862e-06 -2.7172952835135185e-05 0.0000000000000000e+00  -2.0100969166830786e-06 -2.7065768681554199e-05 0.0000000000000000e+00  -1.0694089736771253e-06 -2.6949090259780724e-05 0.0000000000000000e+00  -1.2147755930493240e-07 -2.6810563265291880e-05 0.0000000000000000e+00  8.3161732594319931e-07 -2.6643379621081232e-05 0.0000000000000000e+00  1.7885111399025985e-06 -2.6444829015539349e-05 0.0000000000000000e+00  2.7477282746651634e-06 -2.6215876347406306e-05 0.0000000000000000e+00  3.7067252696810205e-06 -2.5961756566621761e-05 0.0000000000000000e+00  4.6606752582455726e-06 -2.5693697787804327e-05 0.0000000000000000e+00  5.6008902336386743e-06 -2.5432015257893578e-05 0.0000000000000000e+00  6.5129130831741873e-06 -2.5210922794248171e-05 0.0000000000000000e+00  7.3747551271238392e-06 -2.5085280859810108e-05 0.0000000000000000e+00  8.1570685628742789e-06 -2.5138257835620732e-05 0.0000000000000000e+00  8.8308606751441423e-06 -2.5482998640668129e-05 0.0000000000000000e+00  9.3996191732867280e-06 -2.6227426893944231e-05 0.0000000000000000e+00  -1.2301285408490127e-05 -2.5468075287706182e-05 0.0000000000000000e+00  -1.1058748764045886e-05 -2.4849714541588325e-05 0.0000000000000000e+00  -9.7361332051185286e-06 -2.4616112666420755e-05 0.0000000000000000e+00  -8.3861489771397411e-06 -2.4530879211652509e-05 0.0000000000000000e+00  -7.0467735314370663e-06 -2.4486696561600401e-05 0.0000000000000000e+00  -5.7397556094337096e-06 -2.4438642408264851e-05 0.0000000000000000e+00  -4.4738169346885049e-06 -2.4370407028490931e-05 0.0000000000000000e+00  -3.2485305495609836e-06 -2.4277934720577064e-05 0.0000000000000000e+00  -2.0575486627455016e-06 -2.4161764473958015e-05 0.0000000000000000e+00  -8.9091793758696722e-07 -2.4023545081082897e-05 0.0000000000000000e+00  2.6339432449245547e-07 -2.3864479762950366e-05 0.0000000000000000e+00  1.4185218561075867e-06 -2.3684620226516002e-05 0.0000000000000000e+00  2.5880003839702126e-06 -2.3482515273538183e-05 0.0000000000000000e+00  3.7850642387185025e-06 -2.3255034135507911e-05 0.0000000000000000e+00  5.0216112917446147e-06 -2.2997418925929696e-05 0.0000000000000000e+00  6.3063996654805610e-06 -2.2703942401342685e-05 0.0000000000000000e+00  7.6417986794007273e-06 -2.2370233554651138e-05 0.0000000000000000e+00  9.0178794103555668e-06 -2.2000055191495033e-05 0.0000000000000000e+00  1.0401340867975797e-05 -2.1623954132009688e-05 0.0000000000000000e+00  1.1713388332958581e-05 -2.1350382100850771e-05 0.0000000000000000e+00  1.2781143633981851e-05 -2.1509166863685718e-05 0.0000000000000000e+00  -1.3828909221527627e-05 -1.6235008958005869e-05 0.0000000000000000e+00  -1.2168044579949496e-05 -1.7354356392626216e-05 0.0000000000000000e+00  -1.0501828264696203e-05 -1.8071673896103210e-05 0.0000000000000000e+00  -8.9188744692175578e-06 -1.8447052411383574e-05 0.0000000000000000e+00  -7.4449030190993228e-06 -1.8580171190653658e-05 0.0000000000000000e+00  -6.0770001636094015e-06 -1.8557566931609099e-05 0.0000000000000000e+00  -4.8005779572330719e-06 -1.8443106126297752e-05 0.0000000000000000e+00  -3.5973874289892745e-06 -1.8280514093112466e-05 0.0000000000000000e+00  -2.4490178359708706e-06 -1.8098218311762828e-05 0.0000000000000000e+00  -1.3381502590107112e-06 -1.7913658245200035e-05 0.0000000000000000e+00  -2.4870530871656333e-07 -1.7736384115105596e-05 0.0000000000000000e+00  8.3454793951870070e-07 -1.7569890107391637e-05 0.0000000000000000e+00  1.9266392904059405e-06 -1.7412240382862225e-05 0.0000000000000000e+00  3.0431529124308592e-06 -1.7255484181512063e-05 0.0000000000000000e+00  4.2009925463811106e-06 -1.7083714620614392e-05 0.0000000000000000e+00  5.4190497672582450e-06 -1.6869396196702684e-05 0.0000000000000000e+00  6.7186102959726328e-06 -1.6567152078775807e-05 0.0000000000000000e+00  8.1232413395381367e-06 -1.6103179710763260e-05 0.0000000000000000e+00  9.6578863706197873e-06 -1.5355636459317213e-05 0.0000000000000000e+00  1.1347457768115940e-05 -1.4112816446051184e-05 0.0000000000000000e+00  1.3218327170832929e-05 -1.1969146666166073e-05 0.0000000000000000e+00  0.0000000000000000e+00 0.0000000000000000e+00 0.0000000000000000e+00  -1.8251987499106008e-06 -4.2525276990536165e-06 0.0000000000000000e+00  -2.8510925538548080e-06 -6.3330937195028997e-06 0.0000000000000000e+00  -3.3573464803072714e-06 -7.3035989916908808e-06 0.0000000000000000e+00  -3.4977333221536102e-06 -7.6862801043212536e-06 0.0000000000000000e+00  -3.3710469928686698e-06 -7.7543188561835480e-06 0.0000000000000000e+00  -3.0482471331239811e-06 -7.6574955095307556e-06 0.0000000000000000e+00  -2.5839001370237012e-06 -7.4803272946111515e-06 0.0000000000000000e+00  -2.0218499274180660e-06 -7.2708270461447020e-06 0.0000000000000000e+00  -1.3986967953743532e-06 -7.0555420793385772e-06 0.0000000000000000e+00  -7.4639504243921218e-07 -6.8476329335696434e-06 0.0000000000000000e+00  -9.4457886231724783e-08 -6.6510387618253055e-06 0.0000000000000000e+00  5.2804842726123447e-07 -6.4621183569143564e-06 0.0000000000000000e+00  1.0906669045490963e-06 -6.2693337156158953e-06 0.0000000000000000e+00  1.5598912857540968e-06 -6.0510563972369283e-06 0.0000000000000000e+00  1.8977938201081954e-06 -5.7712076623554387e-06 0.0000000000000000e+00  2.0611779409698894e-06 -5.3721098527133309e-06 0.0000000000000000e+00  2.0017274955074694e-06 -4.7637133251024526e-06 0.0000000000000000e+00  1.6680695351068277e-06 -3.8088554917028672e-06 0.0000000000000000e+00  1.0115940920910685e-06 -2.3077544169555692e-06 0.0000000000000000e+00  0.0000000000000000e+00 0.0000000000000000e+00 0.0000000000000000e+00  </DataArray> 
</PointData> 
</Piece>
</UnstructuredGrid>
</VTKFile>