<?xml version="1.0"?>
<VTKFile type="UnstructuredGrid"  version="0.1"  >
<UnstructuredGrid>
<Piece  NumberOfPoints="5042" NumberOfCells="9814">
<Points>
<DataArray  type="Float64"  NumberOfComponents="3"  format="ascii">0 0 0  0 0.012 0  0.02 0.012 0  0.02 0 0  0 0.0002399999999995596 0  0 0.0004799999999990798 0  0 0.0007199999999986036 0  0 0.0009599999999982128 0  0 0.001199999999997798 0  0 0.001439999999997451 0  0 0.001679999999996899 0  0 0.001919999999996208 0  0 0.002159999999995478 0  0 0.002399999999994887 0  0 0.002639999999994144 0  0 0.002879999999993544 0  0 0.003119999999992787 0  0 0.003359999999992186 0  0 0.003599999999991443 0  0 0.003839999999990853 0  0 0.004079999999990099 0  0 0.004319999999989343 0  0 0.004559999999988863 0  0 0.004799999999988168 0  0 0.00503999999998741 0  0 0.005279999999986652 0  0 0.005519999999986045 0  0 0.005759999999985477 0  0 0.00599999999998489 0  0 0.006239999999985699 0  0 0.006479999999986128 0  0 0.006719999999986353 0  0 0.006959999999987278 0  0 0.007199999999988255 0  0 0.007439999999988604 0  0 0.007679999999988715 0  0 0.007919999999989496 0  0 0.008159999999990475 0  0 0.008399999999991451 0  0 0.008639999999992428 0  0 0.008879999999992576 0  0 0.00911999999999182 0  0 0.00935999999999197 0  0 0.009599999999992948 0  0 0.009839999999993921 0  0 0.0100799999999949 0  0 0.01031999999999588 0  0 0.01055999999999685 0  0 0.01079999999999776 0  0 0.01103999999999727 0  0 0.01127999999999707 0  0 0.01151999999999805 0  0 0.01175999999999903 0  0.0002380952380947884 0.012 0  0.000476190476189585 0.012 0  0.0007142857142843371 0.012 0  0.0009523809523790612 0.012 0  0.001190476190473828 0.012 0  0.001428571428568669 0.012 0  0.001666666666663585 0.012 0  0.00190476190475845 0.012 0  0.002142857142853331 0.012 0  0.002380952380948226 0.012 0  0.002619047619042884 0.012 0  0.002857142857137328 0.012 0  0.003095238095231924 0.012 0  0.003333333333326469 0.012 0  0.003571428571421069 0.012 0  0.003809523809515577 0.012 0  0.0040476190476099 0.012 0  0.004285714285704363 0.012 0  0.004523809523799022 0.012 0  0.004761904761893679 0.012 0  0.004999999999988168 0.012 0  0.005238095238082656 0.012 0  0.005476190476177314 0.012 0  0.005714285714271973 0.012 0  0.005952380952366429 0.012 0  0.006190476190460674 0.012 0  0.006428571428555268 0.012 0  0.006666666666649926 0.012 0  0.006904761904744551 0.012 0  0.007142857142838951 0.012 0  0.00738095238093356 0.012 0  0.007619047619028219 0.012 0  0.007857142857122827 0.012 0  0.008095238095217089 0.012 0  0.008333333333311229 0.012 0  0.00857142857140537 0.012 0  0.008809523809500109 0.012 0  0.009047619047595282 0.012 0  0.009285714285690453 0.012 0  0.009523809523785304 0.012 0  0.009761904761879462 0.012 0  0.009999999999973941 0.012 0  0.01023809523806981 0.012 0  0.01047619047616602 0.012 0  0.01071428571426203 0.012 0  0.01095238095235735 0.012 0  0.01119047619045252 0.012 0  0.01142857142854813 0.012 0  0.01166666666664433 0.012 0  0.01190476190474054 0.012 0  0.01214285714283675 0.012 0  0.01238095238093295 0.012 0  0.01261904761902916 0.012 0  0.01285714285712483 0.012 0  0.01309523809522001 0.012 0  0.01333333333331529 0.012 0  0.01357142857141128 0.012 0  0.01380952380950748 0.012 0  0.01404761904760369 0.012 0  0.0142857142856999 0.012 0  0.0145238095237961 0.012 0  0.01476190476189164 0.012 0  0.01499999999998682 0.012 0  0.01523809523808199 0.012 0  0.01547619047617753 0.012 0  0.01571428571427374 0.012 0  0.01595238095236994 0.012 0  0.01619047619046615 0.012 0  0.01642857142856235 0.012 0  0.01666666666665855 0.012 0  0.01690476190475476 0.012 0  0.01714285714285096 0.012 0  0.01738095238094716 0.012 0  0.01761904761904337 0.012 0  0.01785714285713852 0.012 0  0.01809523809523265 0.012 0  0.01833333333332702 0.012 0  0.01857142857142277 0.012 0  0.01880952380951898 0.012 0  0.01904761904761518 0.012 0  0.01928571428571139 0.012 0  0.01952380952380759 0.012 0  0.0197619047619038 0.012 0  0.02 0.01175999999999921 0  0.02 0.01151999999999982 0  0.02 0.01128000000000058 0  0.02 0.01104000000000134 0  0.02 0.0108000000000021 0  0.02 0.01056000000000286 0  0.02 0.01032000000000362 0  0.02 0.01008000000000454 0  0.02 0.00984000000000684 0  0.02 0.009600000000007925 0  0.02 0.009360000000008683 0  0.02 0.00912000000000944 0  0.02 0.008880000000010199 0  0.02 0.008640000000010957 0  0.02 0.008400000000011714 0  0.02 0.008160000000011484 0  0.02 0.007920000000010507 0  0.02 0.007680000000010603 0  0.02 0.007440000000011084 0  0.02 0.00720000000001178 0  0.02 0.00696000000001254 0  0.02 0.0067200000000133 0  0.02 0.00648000000001391 0  0.02 0.006240000000014477 0  0.02 0.006000000000015067 0  0.02 0.005760000000014261 0  0.02 0.005520000000013832 0  0.02 0.005280000000013609 0  0.02 0.005040000000012686 0  0.02 0.004800000000011711 0  0.02 0.004560000000011364 0  0.02 0.004320000000011255 0  0.02 0.004080000000010475 0  0.02 0.003840000000009497 0  0.02 0.003600000000008525 0  0.02 0.00336000000000755 0  0.02 0.0031200000000074 0  0.02 0.002880000000008161 0  0.02 0.002640000000008011 0  0.02 0.002400000000007035 0  0.02 0.002160000000006062 0  0.02 0.001920000000005088 0  0.02 0.001680000000004112 0  0.02 0.00144000000000314 0  0.02 0.001200000000002232 0  0.02 0.0009600000000027208 0  0.02 0.0007200000000029232 0  0.02 0.0004800000000019476 0  0.02 0.0002400000000009738 0  0.01976190476190379 0 0  0.0195238095238076 0 0  0.01928571428571281 0 0  0.01904761904761866 0 0  0.01880952380952451 0 0  0.01857142857143036 0 0  0.01833333333333621 0 0  0.01809523809524206 0 0  0.01785714285714791 0 0  0.01761904761905376 0 0  0.01738095238095961 0 0  0.01714285714286546 0 0  0.01690476190477131 0 0  0.01666666666667694 0 0  0.01642857142858176 0 0  0.01619047619048657 0 0  0.01595238095239139 0 0  0.01571428571429621 0 0  0.0154761904762007 0 0  0.01523809523810551 0 0  0.01500000000001066 0 0  0.01476190476191651 0 0  0.01452380952382236 0 0  0.01428571428572822 0 0  0.01404761904763407 0 0  0.01380952380953992 0 0  0.01357142857144577 0 0  0.01333333333335162 0 0  0.01309523809525747 0 0  0.01285714285716308 0 0  0.01261904761906799 0 0  0.01238095238097281 0 0  0.01214285714287772 0 0  0.01190476190478333 0 0  0.01166666666668918 0 0  0.01142857142859503 0 0  0.01119047619050029 0 0  0.01095238095240511 0 0  0.01071428571430993 0 0  0.01047619047621507 0 0  0.0102380952381209 0 0  0.01000000000002641 0 0  0.009761904761930536 0 0  0.009523809523834321 0 0  0.0092857142857383 0 0  0.009047619047642974 0 0  0.008809523809547793 0 0  0.008571428571452176 0 0  0.008333333333355961 0 0  0.008095238095259746 0 0  0.00785714285716353 0 0  0.007619047619067313 0 0  0.0073809523809711 0 0  0.007142857142875417 0 0  0.006904761904780237 0 0  0.006666666666684943 0 0  0.006428571428588954 0 0  0.006190476190492738 0 0  0.005952380952396523 0 0  0.005714285714300309 0 0  0.005476190476204094 0 0  0.00523809523810854 0 0  0.00500000000001336 0 0  0.004761904761918179 0 0  0.004523809523822626 0 0  0.004285714285726411 0 0  0.004047619047630201 0 0  0.003809523809533987 0 0  0.003571428571437774 0 0  0.003333333333341564 0 0  0.00309523809524535 0 0  0.00285714285714914 0 0  0.002619047619052926 0 0  0.002380952380956713 0 0  0.002142857142861564 0 0  0.001904761904767415 0 0  0.001666666666673037 0 0  0.001428571428577278 0 0  0.001190476190481061 0 0  0.0009523809523848542 0 0  0.0007142857142886372 0 0  0.0004761904761924236 0 0  0.0002380952380962136 0 0  0.01318447728116931 0.0002054724756376096 0  0.00703571411504737 0.01179297346886515 0  0.009393957111202857 0.01178566829002903 0  0.01152411987223061 0.0002073705854719248 0  0.008209442714565999 0.0002293661341580651 0  0.006071428571444631 0.0002061965247114262 0  0.01252387159300391 0.01177721496147268 0  0.009864279959895488 0.0002092373795933997 0  0.01978984669846277 0.006132080769979573 0  0.0001918594623178119 0.006117810553728187 0  0.01418376177829061 0.01177611392099403 0  0.005373436206076422 0.01179331958565476 0  0.01085720811379693 0.01178395844817033 0  0.0146509645290248 0.0001956879809415279 0  0.0001755752538913103 0.00465949515529163 0  0.01978834567063831 0.004691789003433425 0  0.004631698329186475 0.0002047751934267602 0  0.01979087220358429 0.00756550010833225 0  0.0001995340756551599 0.007560008952131378 0  0.01558464754944247 0.01178986332668023 0  0.01605275139821281 0.0002042521088142625 0  0.003899937430954314 0.01178964579439611 0  0.00824045576413213 0.01179344211650992 0  0.0002078460969076221 0.003479999999991815 0  0.01978850594531548 0.003483415399629333 0  0.003424002220657234 0.0002053618445880372 0  0.01979254977368636 0.008765185815844821 0  0.0002079873092101698 0.008760161881310976 0  0.01678154229018126 0.01182442607549297 0  0.01727274415307985 0.0002248925371768773 0  0.002738095238090106 0.01179380347529011 0  0.01979215390309125 0.002520000000007523 0  0.0002078460969076217 0.002519999999994515 0  0.007262304885843406 0.0002024697694887917 0  0.00250000000000482 0.0002061965247109642 0  0.01979217402745079 0.009720102811022679 0  0.0002078532362884826 0.009719922724330445 0  0.01775621868387764 0.01178849440176412 0  0.0182169689601969 0.0001933026553644993 0  0.001788515484759992 0.01178939860996305 0  0.000200155249136635 0.001559925009654356 0  0.01978715651190513 0.001563831723424565 0  0.001569046683787388 0.0002108820145028341 0  0.01979217582511283 0.01068026059139825 0  0.0002081382544979005 0.01044048350356933 0  0.01979155267337484 0.006843404395469016 0  0.000187968684013261 0.005389055003690767 0  0.01979011858049167 0.005410500294388559 0  0.0001882816162553076 0.006828930252360772 0  0.009160250026290132 0.0002020789092408286 0  0.01082190557937627 0.0002015672655486539 0  0.01248354193408898 0.0002006047011554212 0  0.006330972935302184 0.01178523861319707 0  0.01175621854128248 0.01177775247620325 0  0.0139558814926981 0.0002048302144585014 0  0.01009626095885685 0.01177807292970702 0  0.01322663902696712 0.0
[...]
<PointData  Scalars="T [K]"> 
<DataArray  type="Float64"  Name="T [K]"  format="ascii">2.0000000000000004e+01  1.5000000000000003e+02  1.5000000000000003e+02  2.0000000000000000e+01  2.1941324771425908e+01  2.3893000721119954e+01  2.5855910396373861e+01  2.7831009410795744e+01  2.9819326053221214e+01  3.1821738706911535e+01  3.3839065478781279e+01  3.5872356549046728e+01  3.7922563498466374e+01  3.9990699220019643e+01  4.2077710651381395e+01  4.4184562348537419e+01  4.6312257589026977e+01  4.8461798359147394e+01  5.0634193710295563e+01  5.2830443741939845e+01  5.5051632657039249e+01  5.7298843689110910e+01  5.9572921972155768e+01  6.1875430561084990e+01  6.4207133864181003e+01  6.6568878829067458e+01  6.8962228536042204e+01  7.1387784467089546e+01  7.3847117313061261e+01  7.6341313766580413e+01  7.8871565814979917e+01  8.1439278821094106e+01  8.4045382606068657e+01  8.6690830139929872e+01  8.9377198607808253e+01  9.2105770093972438e+01  9.4877938378850871e+01  9.7694855935385590e+01  1.0055785488838761e+02  1.0346822795160425e+02  1.0642738018913266e+02  1.0943679316277260e+02  1.1249782168053187e+02  1.1561192243430921e+02  1.1878059577191785e+02  1.2200535156086696e+02  1.2528772617719005e+02  1.2862919458675756e+02  1.3203123487486508e+02  1.3549556099630118e+02  1.3902391561288971e+02  1.4261781233044874e+02  1.4627810695457876e+02  1.5000000000000000e+02  1.5000000000000000e+02  1.4999999999999997e+02  1.5000000000000003e+02  1.5000000000000000e+02  1.5000000000000000e+02  1.5000000000000000e+02  1.4999999999999997e+02  1.5000000000000000e+02  1.5000000000000000e+02  1.5000000000000000e+02  1.4999999999999997e+02  1.5000000000000000e+02  1.5000000000000000e+02  1.4999999999999997e+02  1.5000000000000000e+02  1.5000000000000000e+02  1.5000000000000000e+02  1.5000000000000000e+02  1.4999999999999997e+02  1.5000000000000000e+02  1.5000000000000000e+02  1.5000000000000000e+02  1.5000000000000003e+02  1.4999999999999997e+02  1.5000000000000000e+02  1.5000000000000000e+02  1.4999999999999997e+02  1.4999999999999997e+02  1.4999999999999997e+02  1.5000000000000000e+02  1.5000000000000003e+02  1.5000000000000003e+02  1.5000000000000000e+02  1.5000000000000000e+02  1.4999999999999997e+02  1.5000000000000000e+02  1.5000000000000000e+02  1.5000000000000000e+02  1.5000000000000000e+02  1.5000000000000000e+02  1.5000000000000000e+02  1.4999999999999997e+02  1.5000000000000000e+02  1.4999999999999997e+02  1.5000000000000003e+02  1.4999999999999997e+02  1.5000000000000003e+02  1.5000000000000000e+02  1.4999999999999997e+02  1.5000000000000000e+02  1.5000000000000003e+02  1.5000000000000000e+02  1.4999999999999997e+02  1.5000000000000000e+02  1.5000000000000000e+02  1.5000000000000003e+02  1.4999999999999997e+02  1.5000000000000000e+02  1.5000000000000000e+02  1.5000000000000000e+02  1.5000000000000000e+02  1.5000000000000000e+02  1.5000000000000000e+02  1.5000000000000003e+02  1.5000000000000000e+02  1.4999999999999997e+02  1.5000000000000000e+02  1.5000000000000000e+02  1.5000000000000000e+02  1.5000000000000000e+02  1.5000000000000000e+02  1.5000000000000000e+02  1.4999999999999997e+02  1.5000000000000000e+02  1.4999999999999997e+02  1.5000000000000000e+02  1.4999999999999997e+02  1.5000000000000000e+02  1.5000000000000000e+02  1.5000000000000000e+02  1.5000000000000000e+02  1.5000000000000000e+02  1.4627771494277050e+02  1.4261692108723452e+02  1.3902306685692528e+02  1.3549478268420000e+02  1.3203047686872037e+02  1.2862847022601403e+02  1.2528713823986382e+02  1.2200490950361652e+02  1.1878023721987563e+02  1.1561160714831767e+02  1.1249751628492822e+02  1.0943650191556193e+02  1.0642711448695410e+02  1.0346795606502911e+02  1.0055760113706677e+02  9.7694671008759883e+01  9.4877871208768909e+01  9.2105826391552682e+01  8.9377229373624559e+01  8.6690659871997198e+01  8.4045046351183601e+01  8.1439134369325060e+01  7.8871653452006854e+01  7.6341385529002309e+01  7.3847154925786455e+01  7.1387705840234318e+01  6.8961939847954426e+01  6.6568703304001090e+01  6.4206939001839899e+01  6.1875484651071666e+01  5.9573231100346696e+01  5.7298888795914664e+01  5.5051680289912888e+01  5.2830449179897556e+01  5.0634138256187249e+01  4.8461736236488662e+01  4.6312251810912997e+01  4.4184509490885297e+01  4.2077705549213881e+01  3.9990666188886493e+01  3.7922601902311008e+01  3.5872371901971590e+01  3.3838999029866535e+01  3.1821650028774343e+01  2.9819302985806718e+01  2.7831002296470267e+01  2.5855906712774591e+01  2.3892947166586143e+01  2.1941234029362359e+01  2.0000000000000000e+01  2.0000000000000000e+01  2.0000000000000004e+01  2.0000000000000000e+01  2.0000000000000000e+01  2.0000000000000000e+01  2.0000000000000000e+01  2.0000000000000000e+01  1.9999999999999996e+01  2.0000000000000000e+01  2.0000000000000000e+01  2.0000000000000000e+01  2.0000000000000000e+01  2.0000000000000000e+01  2.0000000000000004e+01  1.9999999999999996e+01  2.0000000000000000e+01  1.9999999999999996e+01  2.0000000000000000e+01  1.9999999999999996e+01  2.0000000000000004e+01  2.0000000000000004e+01  2.0000000000000000e+01  2.0000000000000004e+01  1.9999999999999996e+01  1.9999999999999996e+01  2.0000000000000000e+01  2.0000000000000000e+01  2.0000000000000000e+01  2.0000000000000000e+01  2.0000000000000000e+01  1.9999999999999996e+01  2.0000000000000004e+01  2.0000000000000000e+01  2.0000000000000000e+01  2.0000000000000000e+01  2.0000000000000004e+01  2.0000000000000000e+01  2.0000000000000004e+01  1.9999999999999996e+01  2.0000000000000000e+01  1.9999999999999996e+01  2.0000000000000000e+01  2.0000000000000000e+01  1.9999999999999996e+01  1.9999999999999996e+01  2.0000000000000000e+01  2.0000000000000000e+01  2.0000000000000000e+01  2.0000000000000000e+01  2.0000000000000000e+01  1.9999999999999996e+01  2.0000000000000000e+01  1.9999999999999996e+01  2.0000000000000000e+01  1.9999999999999996e+01  2.0000000000000000e+01  2.0000000000000000e+01  2.0000000000000000e+01  1.9999999999999996e+01  2.0000000000000000e+01  2.0000000000000000e+01  1.9999999999999996e+01  2.0000000000000004e+01  2.0000000000000000e+01  1.9999999999999996e+01  2.0000000000000000e+01  2.0000000000000000e+01  2.0000000000000004e+01  1.9999999999999996e+01  2.0000000000000000e+01  2.0000000000000000e+01  2.0000000000000000e+01  1.9999999999999996e+01  1.9999999999999996e+01  2.0000000000000000e+01  2.0000000000000000e+01  2.0000000000000004e+01  2.0000000000000000e+01  2.0000000000000000e+01  2.0000000000000000e+01  1.9999999999999996e+01  2.0000000000000000e+01  2.1661296961397415e+01  1.4678699101900361e+02  1.4667437545549109e+02  2.1676666588016367e+01  2.1854989384423682e+01  2.1667298793003901e+01  1.4654291147165222e+02  2.1691776246063167e+01  7.5215447727502450e+01  7.5067087905981154e+01  1.4652593288754812e+02  1.4679202543116364e+02  1.4664554318173148e+02  2.1582188362210708e+01  6.0524128803292420e+01  6.0833836121222845e+01  2.1655816731579094e+01  9.0798692720234044e+01  9.0736117139922953e+01  1.4673949294162855e+02  2.1651395178254571e+01  1.4673409254499035e+02  1.4679385060389146e+02  4.9545084449767863e+01  4.9575956289174492e+01  2.1660547780535740e+01  1.0500535036236595e+02  1.0494356296602814e+02  1.4727221978104120e+02  2.1818733541171405e+01  1.4679968182115311e+02  4.1031782615833308e+01  4.1031799869958341e+01  2.1637113495307297e+01  2.1667286580542765e+01  1.1719036185385966e+02  1.1718831382019970e+02  1.4671851893588237e+02  2.1562801086993261e+01  1.4673114345321093e+02  3.2827814090334698e+01  3.2860585562291106e+01  2.1705115015210026e+01  1.3032547632956030e+02  1.2695772413896394e+02  8.2774239977146607e+01  6.7652391515424256e+01  6.7866071003420927e+01  8.2617281607920006e+01  2.1633943579732982e+01  2.1629789831053170e+01  2.1621977358652305e+01  1.4666619491484829e+02  1.4655089349504968e+02  2.1656087338377901e+01  1.4655535552583524e+02  1.4665272766470852e+02  2.1564601389628614e+01  1.4672244807905463e+02  2.1708641441829624e+01  1.4679984282539476e+02  1.4673104039107102e+02  2.1612622847566048e+01  1.4667918111447452e+02  2.6840953473457969e+01  1.4671631769192541e+02  2.6958119924280748e+01  1.3725574148666217e+02  2.1716791285297688e+01  3.6953619865248719e+01  1.3725403292867711e+02  3.6895040363270162e+01  1.2363986274229691e+02  4.5245745447669961e+01  5.3937930971605255e+01  4.5245697150347461e+01  9.9121698673331494e+01  1.1096171455612254e+02  9.9200376028553862e+01  1.1097680706288604e+02  5.3922631904257308e+01  1.4679813650587803e+02  2.1714145325991950e+01  1.4665885550287678e+02  2.1667297520354580e+01  1.4679717157593510e+02  2.1667291605094722e+01  2.1614416507887679e+01  2.1667299095794331e+01  1.4679988738925593e+02  1.4679961788596921e+02  2.1711364604558511e+01  2.1667290990612571e+01  1.4670956236774211e+02  1.4670424426550591e+02  2.1653992833429438e+01  1.4669911375967021e+02  1.4692308694868686e+02  2.1626170746013049e+01  2.1715778297698524e+01  2.1636992562388063e+01  1.4667266306408951e+02  1.4436527660725770e+02  2.2993017975263690e+01  2.2972184091573965e+01  1.4441975341369826e+02  1.4082055578164034e+02  1.3906373633984748e+02  1.3551030481740702e+02  1.3729037572033684e+02  1.3377936557818037e+02  1.3554126822830145e+02  1.3206428647709888e+02  1.3381059321584152e+02  1.3036536695806330e+02  1.3209560779709733e+02  1.2868199446212262e+02  1.3039681563783520e+02  1.2702342773159748e+02  1.2871484073689342e+02  1.2536194673787141e+02  1.2704676659056955e+02  1.2373206536199517e+02  1.2539012197615673e+02  1.2210787113856885e+02  1.2372507772008900e+02  1.2048859000860875e+02  1.2212653524091603e+02  1.1890138983028992e+02  1.2051928107323398e+02  1.1731489043869809e+02  1.1889712928047814e+02  1.1574266581256104e+02  1.1734186714402311e+02  1.1419282710769102e+02  1.1580577785841540e+02  1.1265876726942967e+02  1.1423316849613455e+02  1.1113022965081542e+02  1.1269934878061540e+02  1.0961761543140624e+02  1.1117934480283573e+02  1.0810888977600025e+02  1.0965012048626927e+02  1.0662693325636212e+02  1.0814793922321793e+02  1.0515255225751255e+02  1.0665987182938548e+02  1.0368993349615140e+02  1.0518370359368937e+02  1.0224152698288185e+02  1.0372092689057341e+02  1.0080610536080887e+02  1.0224756275936322e+02  9.9373952058523841e+01  1.0080430322994118e+02  9.7954547683661474e+01  9.9397839058253680e+01  9.6553560499315665e+01  9.7986320369747958e+01  9.5165243277562539e+01  9.6583565494656597e+01  9.3784881617649503e+01  9.5191283288312036e+01  9.2410227349330725e+01  9.3811586090477533e+01  9.1055054737916166e+01  9.2442127998196653e+01  8.9700719538041071e+01  8.9704453991081152e+01  9.1048162133954960e+01  8.8359850583070241e+01  8.9692700659539568e+01  8.7032868899778776e+01  8.8364589233985853e+01  8.5716853721015482e+01  8.7038529599658759e+01  8.4406500215812883e+01  8.5720603629172189e+01  8.3108050349658669e+01  8.4412552320887769e+01  8.1814632622820909e+01  8.1819616473123034e+01  8.3136711710968399e+01  8.0547730504768154e+01  8.1874814846587768e+01  7.9280141241186271e+01  8.0569498852899514e+01  7.8016102976906410e+01  7.9299572440211094e+01  9.6546271721201393e+01  7.6764138751430096e+01  7.8038946025670199e+01  7.5521530996332345e+01  7.6770279534958334e+01  7.5517019368645961e+01  7.4284177936428847e+01  7.5543989934277462e+01  7.3061580792091476e+01  7.4313185792013257e+01  7.1845685917849053e+01  7.3069004753957799e+01  7.5547347711723518e+01  7.4298637521361471e+01  7.1848587958328991e+01  7.3071309848832016e+01  7.5556441318521777e+01  7.4321391814641771e+01  7.1856831680643026e+01  7.3080666464860997e+01  7.5598856642388910e+01  7.4319156526564427e+01  7.1861821640114542e+01  7.3085042697967694e+01  7.5584322062417939e+01  7.4335071045567574e+01  7.1868849569537076e+01  7.3092980922448731e+01  7.5582462672411040e+01  7.4342541606512853e+01  7.1875316892274242e+01  7.3099436075914241e+01  7.5577249964103558e+01  7.4324796740806121e+01  7.1877404270588414e+01  7.3100986901452515e+01  7.5563388703609633e+01  7.4333725123967525e+01  7.1883037138756819e+01  7.3107539097105217e+01  7.5591017862910022e+01  7.4357328140534975e+01  7.1892508345342222e+01  7.3117905166184244e+01  7.5584435755875205e+01  7.4348697532393828e+01  7.1896369239990179e+01  7.3120124038092683e+01  7.5603954315145955e+01  7.4369290719788424e+01  7.1902435561303506e+01  7.3145198957551628e+01  7.5613510683382998e+01  7.0692151186128953e+01  7.1928117492276755e+01  6.9485685310406353e+01  7.0709273236839863e+01  6.8292575600937710e+01  8.1896677614002130e+01  6.9494679527505070e+01  6.7103889775673224e+01  6.5917454607846693e+01  6.4745755659320750e+01  1.0367607105208481e+02  6.3579143912656136e+01  6.5923676638009340e+01  6.3581227634421850e+01  6.4751518981151122e+01  6.2423922839597964e+01  8.8373090884970338e+01  6.3586944096309708e+01  6.1273872282686590e+01  6.2428993054222282e+01  6.0129921149285920e+01  5.8989646678218108e+01  5.7860394440833375e+01  7.0627907939349726e+01  6.4765198572585959e+01  5.6733219898311219e+01  6.3589835383552291e+01  6.5944927637575489e+01  9.3781946263385706e+01  5.5617800731168515e+01  5.4503664649174397e+01  6.4761095998309685e+01  6.7132240536923575e+01  1.0960112227723334e+02  5.3401295634898439e+01  6.5939388701961747e+01  6.8334906464256065e+01  5.2300022548176145e+01  9.9382170137745831e+01  5.1209954210652754e+01  5.2305132986421874e+01  6.7124745200122106e+01  6.9531081616240314e+01  5.0121001902462993e+01  5.0125781207225948e+01  5.1214966413007140e+01  6.8322286465790540e+01  7.0732519171825913e+01  4.9047278397402856e+01  5.0130754206034617e+01  7.1959587228518473e+01  7.3176500827763320e+01  7.4408089383645333e+01  7.5650220900944035e+01  7.6905980193870320e+01  7.8161602589595091e+01  7.9440270310775318e+01  8.0712641610054305e+01  8.1998985520664476e+01  8.3295855895846429e+01  8.4599814871672919e+01  8.5920191869417650e+01  8.7243119520586106e+01  8.8584847879501737e+01  8.9927795708324922e+01  9.1290793946316086e+01  9.2654074366457934e+01  9.4037469404345217e+01  9.5423165490164820e+01  9.6828392351930006e+01  9.8240341069441811e+01  9.9669696065286630e+01  9.6821384708014861e+01  9.9660720111830557e+01  9.8230114956408855e+01  1.0108768934806712e+02  9.9648997376387470e+01  1.0252931655525536e+02  1.0108203984958497e+02  1.0398357901655298e+02  1.0252671672030804e+02  4.7974374916710509e+01  4.9050070906937599e+01  9.5433384500298075e+01  7.9438858561662030e+01  6.9526833975778970e+01  1.0518056248407738e+02  1.0544991642833482e+02  1.0397883384657226e+02  1.0548537987046095e+02  4.6907333956802582e+01  4.7976872493801245e+01  1.0692749703750130e+02  1.0544173887042231e+02  4.5841363487084600e+01  4.5845260148548057e+01  4.6909038001483914e+01  1.1576438535940935e+02  1.0841695157600930e+02  1.0691951662910283e+02  4.4787572700424278e+01  4.5846743937589267e+01  1.0991923777668569e+02  1.0840942061583986e+02  1.0543866494434461e+02  1.0691481242236804e+02  1.0991240318825858e+02  1.0840223347054790e+02  1.0543357424732160e+02  1.0690819998407716e+02  1.0991625562012356e+02  1.0842045858971086e+02  1.0543100907888835e+02  1.0690645683730497e+02  1.0993493453013042e+02  1.0841982208561471e+02  1.0542638890666134e+02  1.0690141407178986e+02  1.0992171287268997e+02  1.0838907811951718e+02  1.0541647192017872e+02  1.0689062879785044e+02  1.0991023592303235e+02  1.0840544102931246e+02  1.0541342207721107e+02  1.0688890452859579e+02  1.0994373283749945e+02  1.0840727207892476e+02  1.0540964315433607e+02  1.0688482290695168e+02  1.0993088981535824e+02  1.0840097272679199e+02  1.0540428482105655e+02  1.0687925503317648e+02  1.0986635785060577e+02  1.0838560847708220e+02  1.0539642078969514e+02  1.0686932249640080e+02  1.0991459855451079e+02  1.0838773798097085e+02  1.0538997647360284e+02  1.0686672673163301e+02  1.0988638219321675e+02  1.0835502187036532e+02  4.3735632773433032e+01  4.4789390044624767e+01  4.6902055789463461e+01  1.1137531660152409e+02  1.0984988087920887e+02  1.1116890414350875e+02  5.1204797149837518e+01  4.9038092688951345e+01  5.0115681884038558e+01  4.7961158404893844e+01  4.9032721547520993e+01  4.6889621649031618e+01  4.7955636815222412e+01  4.5824114965610001e+01  4.6884363213101359e+01  4.4764073314020528e+01  4.5818753386672697e+01  4.3714182047232207e+01  4.3709252630062757e+01  4.4758778508256981e+01  4.2659857066812990e+01  4.3704203533376443e+01  4.5813381511823337e+01  4.4753556405447988e+01  4.6873219442318238e+01  4.5807969531814706e+01  4.3687983718518154e+01  4.4740015566730534e+01  4.6865414659824033e+01  4.5800312553593791e+01  4.3674479266397903e+01  4.4732719417954726e+01  4.6858756437795485e+01  4.5794177038793102e+01  4.3668438094141230e+01  4.4726872680937376e+01  4.6852832548362834e+01  4.5788301324921221e+01  4.3674996345774076e+01  4.4729471083213824e+01  4.6848664632535630e+01  4.5784008829162396e+01  4.3664573426348674e+01  4.4716532688187826e+01  4.6841253072707325e+01  4.5776509309204783e+01  4.3650765192253921e+01  4.4708894309541449e+01  4.6834538839657299e+01  4.5769932553487799e+01  4.3644260333054817e+01  4.4702429289740820e+01  4.6828102290902379e+01  4.5763526793045884e+01  4.3637930343231673e+01  4.4696197921576641e+01  1.1144203207223029e+02  4.6821666997697875e+01  4.5757108660311978e+01  4.3648464303848172e+01  4.4698946333331584e+01  4.6816691962062706e+01  4.5752374708289310e+01  4.3645084686201564e+01  4.4693230190915216e+01  4.6810527526361980e+01  4.5746032732789011e+01  4.7873952543715504e+01  4.6803951203835169e+01  4.8942838833223306e+01  4.7867248379493589e+01  4.5739452566094513e+01  4.6797277524837561e+01  4.8936040486049620e+01  4.7860459412043596e+01  5.0010469908641248e+01  4.8929189766771657e+01  5.1090682780192040e+01  5.0003632391559115e+01  4.7853642305860625e+01  4.8922425051985599e+01  5.1083948092294882e+01  4.9996853615889130e+01  5.2170253889398559e+01  5.1077112140202317e+01  5.3262693293461545e+01  5.2163315659272101e+01  5.4361366491531989e+01  5.3255715836193453e+01  5.1068591069994724e+01  5.2155178752419957e+01  5.4354602042609372e+01  5.3248332835857283e+01  5.5460209006955338e+01  5.4347666623037163e+01  5.2148116590030554e+01  5.3241210441274276e+01  5.5453537927503405e+01  5.4340389590471602e+01  5.6566037003136067e+01  5.5446074469368561e+01  5.7685086888671535e+01  5.6558621110047596e+01  5.4332412892818319e+01  5.5438376354267668e+01  5.7678149862706626e+01  5.6550965591278157e+01  5.8804357182669982e+01  5.7670481118383471e+01  5.9937706303281836e+01  5.5430195285248104e+01  5.6543255879412591e+01  5.4315860297742447e+01  5.5422540021714894e+01  5.3207703025227822e+01  5.4308195419889024e+01  5.2105743875640648e+01  5.3199825865035727e+01  5.5415457509978253e+01  5.1009873707194231e+01  4.9927743193855768e+01  4.8843846224911253e+01  5.2098052581042367e+01  4.7773428536944110e+01  4.6701038689610598e+01  4.6783706842405913e+01  4.5641791726574631e+01  4.4580430582108249e+01  4.3531880574895922e+01  4.2480977012014932e+01  4.3524232409062030e+01  4.2689426798167425e+01  4.3737764560789458e+01  4.1643148253086544e+01  1.1292279903103315e+02  1.1136817051021107e+02  1.0391671451992259e+02  4.1648094011700564e+01  4.1434910942741091e+01  4.2473217752275943e+01  4.1442762318999634e+01  9.8227900197052918e+01  5.5473256360427655e+01  1.1443541242355089e+02  1.1291705718533704e+02  1.0984980600460240e+02  1.1136108081281323e+02  1.1445259741852161e+02  1.1288915607330672e+02  1.0833981051069784e+02  4.2694081614735055e+01  4.2488380147117226e+01  6.1085356156430194e+01  6.2232835551449895e+01  6.3394955682905810e+01  6.4556963758056725e+01  6.5734011442795676e+01  6.6911130012814368e+01  6.8103668724359920e+01  6.9296475310186011e+01  6.8096005272288224e+01  7.0497609558616588e+01  6.9288790596278574e+01  7.1707048707747404e+01  7.0489797647865402e+01  7.2924914816263083e+01  7.1699178375167577e+01  7.4151602849815362e+01  7.2922091807243447e+01  7.5388164333890458e+01  7.4146779876520512e+01  7.6633026201210726e+01  7.5385281694995442e+01  7.7887366658331786e+01  7.662522279653485