<?xml version="1.0"?>
<VTKFile type="UnstructuredGrid"  version="0.1"  >
<UnstructuredGrid>
<Piece  NumberOfPoints="5042" NumberOfCells="9814">
<Points>
<DataArray  type="Float64"  NumberOfComponents="3"  format="ascii">0 0 0  0 0.012 0  0.02 0.012 0  0.02 0 0  0 0.0002399999999995596 0  0 0.0004799999999990798 0  0 0.0007199999999986036 0  0 0.0009599999999982128 0  0 0.001199999999997798 0  0 0.001439999999997451 0  0 0.001679999999996899 0  0 0.001919999999996208 0  0 0.002159999999995478 0  0 0.002399999999994887 0  0 0.002639999999994144 0  0 0.002879999999993544 0  0 0.003119999999992787 0  0 0.003359999999992186 0  0 0.003599999999991443 0  0 0.003839999999990853 0  0 0.004079999999990099 0  0 0.004319999999989343 0  0 0.004559999999988863 0  0 0.004799999999988168 0  0 0.00503999999998741 0  0 0.005279999999986652 0  0 0.005519999999986045 0  0 0.005759999999985477 0  0 0.00599999999998489 0  0 0.006239999999985699 0  0 0.006479999999986128 0  0 0.006719999999986353 0  0 0.006959999999987278 0  0 0.007199999999988255 0  0 0.007439999999988604 0  0 0.007679999999988715 0  0 0.007919999999989496 0  0 0.008159999999990475 0  0 0.008399999999991451 0  0 0.008639999999992428 0  0 0.008879999999992576 0  0 0.00911999999999182 0  0 0.00935999999999197 0  0 0.009599999999992948 0  0 0.009839999999993921 0  0 0.0100799999999949 0  0 0.01031999999999588 0  0 0.01055999999999685 0  0 0.01079999999999776 0  0 0.01103999999999727 0  0 0.01127999999999707 0  0 0.01151999999999805 0  0 0.01175999999999903 0  0.0002380952380947884 0.012 0  0.000476190476189585 0.012 0  0.0007142857142843371 0.012 0  0.0009523809523790612 0.012 0  0.001190476190473828 0.012 0  0.001428571428568669 0.012 0  0.001666666666663585 0.012 0  0.00190476190475845 0.012 0  0.002142857142853331 0.012 0  0.002380952380948226 0.012 0  0.002619047619042884 0.012 0  0.002857142857137328 0.012 0  0.003095238095231924 0.012 0  0.003333333333326469 0.012 0  0.003571428571421069 0.012 0  0.003809523809515577 0.012 0  0.0040476190476099 0.012 0  0.004285714285704363 0.012 0  0.004523809523799022 0.012 0  0.004761904761893679 0.012 0  0.004999999999988168 0.012 0  0.005238095238082656 0.012 0  0.005476190476177314 0.012 0  0.005714285714271973 0.012 0  0.005952380952366429 0.012 0  0.006190476190460674 0.012 0  0.006428571428555268 0.012 0  0.006666666666649926 0.012 0  0.006904761904744551 0.012 0  0.007142857142838951 0.012 0  0.00738095238093356 0.012 0  0.007619047619028219 0.012 0  0.007857142857122827 0.012 0  0.008095238095217089 0.012 0  0.008333333333311229 0.012 0  0.00857142857140537 0.012 0  0.008809523809500109 0.012 0  0.009047619047595282 0.012 0  0.009285714285690453 0.012 0  0.009523809523785304 0.012 0  0.009761904761879462 0.012 0  0.009999999999973941 0.012 0  0.01023809523806981 0.012 0  0.01047619047616602 0.012 0  0.01071428571426203 0.012 0  0.01095238095235735 0.012 0  0.01119047619045252 0.012 0  0.01142857142854813 0.012 0  0.01166666666664433 0.012 0  0.01190476190474054 0.012 0  0.01214285714283675 0.012 0  0.01238095238093295 0.012 0  0.01261904761902916 0.012 0  0.01285714285712483 0.012 0  0.01309523809522001 0.012 0  0.01333333333331529 0.012 0  0.01357142857141128 0.012 0  0.01380952380950748 0.012 0  0.01404761904760369 0.012 0  0.0142857142856999 0.012 0  0.0145238095237961 0.012 0  0.01476190476189164 0.012 0  0.01499999999998682 0.012 0  0.01523809523808199 0.012 0  0.01547619047617753 0.012 0  0.01571428571427374 0.012 0  0.01595238095236994 0.012 0  0.01619047619046615 0.012 0  0.01642857142856235 0.012 0  0.01666666666665855 0.012 0  0.01690476190475476 0.012 0  0.01714285714285096 0.012 0  0.01738095238094716 0.012 0  0.01761904761904337 0.012 0  0.01785714285713852 0.012 0  0.01809523809523265 0.012 0  0.01833333333332702 0.012 0  0.01857142857142277 0.012 0  0.01880952380951898 0.012 0  0.01904761904761518 0.012 0  0.01928571428571139 0.012 0  0.01952380952380759 0.012 0  0.0197619047619038 0.012 0  0.02 0.01175999999999921 0  0.02 0.01151999999999982 0  0.02 0.01128000000000058 0  0.02 0.01104000000000134 0  0.02 0.0108000000000021 0  0.02 0.01056000000000286 0  0.02 0.01032000000000362 0  0.02 0.01008000000000454 0  0.02 0.00984000000000684 0  0.02 0.009600000000007925 0  0.02 0.009360000000008683 0  0.02 0.00912000000000944 0  0.02 0.008880000000010199 0  0.02 0.008640000000010957 0  0.02 0.008400000000011714 0  0.02 0.008160000000011484 0  0.02 0.007920000000010507 0  0.02 0.007680000000010603 0  0.02 0.007440000000011084 0  0.02 0.00720000000001178 0  0.02 0.00696000000001254 0  0.02 0.0067200000000133 0  0.02 0.00648000000001391 0  0.02 0.006240000000014477 0  0.02 0.006000000000015067 0  0.02 0.005760000000014261 0  0.02 0.005520000000013832 0  0.02 0.005280000000013609 0  0.02 0.005040000000012686 0  0.02 0.004800000000011711 0  0.02 0.004560000000011364 0  0.02 0.004320000000011255 0  0.02 0.004080000000010475 0  0.02 0.003840000000009497 0  0.02 0.003600000000008525 0  0.02 0.00336000000000755 0  0.02 0.0031200000000074 0  0.02 0.002880000000008161 0  0.02 0.002640000000008011 0  0.02 0.002400000000007035 0  0.02 0.002160000000006062 0  0.02 0.001920000000005088 0  0.02 0.001680000000004112 0  0.02 0.00144000000000314 0  0.02 0.001200000000002232 0  0.02 0.0009600000000027208 0  0.02 0.0007200000000029232 0  0.02 0.0004800000000019476 0  0.02 0.0002400000000009738 0  0.01976190476190379 0 0  0.0195238095238076 0 0  0.01928571428571281 0 0  0.01904761904761866 0 0  0.01880952380952451 0 0  0.01857142857143036 0 0  0.01833333333333621 0 0  0.01809523809524206 0 0  0.01785714285714791 0 0  0.01761904761905376 0 0  0.01738095238095961 0 0  0.01714285714286546 0 0  0.01690476190477131 0 0  0.01666666666667694 0 0  0.01642857142858176 0 0  0.01619047619048657 0 0  0.01595238095239139 0 0  0.01571428571429621 0 0  0.0154761904762007 0 0  0.01523809523810551 0 0  0.01500000000001066 0 0  0.01476190476191651 0 0  0.01452380952382236 0 0  0.01428571428572822 0 0  0.01404761904763407 0 0  0.01380952380953992 0 0  0.01357142857144577 0 0  0.01333333333335162 0 0  0.01309523809525747 0 0  0.01285714285716308 0 0  0.01261904761906799 0 0  0.01238095238097281 0 0  0.01214285714287772 0 0  0.01190476190478333 0 0  0.01166666666668918 0 0  0.01142857142859503 0 0  0.01119047619050029 0 0  0.01095238095240511 0 0  0.01071428571430993 0 0  0.01047619047621507 0 0  0.0102380952381209 0 0  0.01000000000002641 0 0  0.009761904761930536 0 0  0.009523809523834321 0 0  0.0092857142857383 0 0  0.009047619047642974 0 0  0.008809523809547793 0 0  0.008571428571452176 0 0  0.008333333333355961 0 0  0.008095238095259746 0 0  0.00785714285716353 0 0  0.007619047619067313 0 0  0.0073809523809711 0 0  0.007142857142875417 0 0  0.006904761904780237 0 0  0.006666666666684943 0 0  0.006428571428588954 0 0  0.006190476190492738 0 0  0.005952380952396523 0 0  0.005714285714300309 0 0  0.005476190476204094 0 0  0.00523809523810854 0 0  0.00500000000001336 0 0  0.004761904761918179 0 0  0.004523809523822626 0 0  0.004285714285726411 0 0  0.004047619047630201 0 0  0.003809523809533987 0 0  0.003571428571437774 0 0  0.003333333333341564 0 0  0.00309523809524535 0 0  0.00285714285714914 0 0  0.002619047619052926 0 0  0.002380952380956713 0 0  0.002142857142861564 0 0  0.001904761904767415 0 0  0.001666666666673037 0 0  0.001428571428577278 0 0  0.001190476190481061 0 0  0.0009523809523848542 0 0  0.0007142857142886372 0 0  0.0004761904761924236 0 0  0.0002380952380962136 0 0  0.01318447728116931 0.0002054724756376096 0  0.00703571411504737 0.01179297346886515 0  0.009393957111202857 0.01178566829002903 0  0.01152411987223061 0.0002073705854719248 0  0.008209442714565999 0.0002293661341580651 0  0.006071428571444631 0.0002061965247114262 0  0.01252387159300391 0.01177721496147268 0  0.009864279959895488 0.0002092373795933997 0  0.01978984669846277 0.006132080769979573 0  0.0001918594623178119 0.006117810553728187 0  0.01418376177829061 0.01177611392099403 0  0.005373436206076422 0.01179331958565476 0  0.01085720811379693 0.01178395844817033 0  0.0146509645290248 0.0001956879809415279 0  0.0001755752538913103 0.00465949515529163 0  0.01978834567063831 0.004691789003433425 0  0.004631698329186475 0.0002047751934267602 0  0.01979087220358429 0.00756550010833225 0  0.0001995340756551599 0.007560008952131378 0  0.01558464754944247 0.01178986332668023 0  0.01605275139821281 0.0002042521088142625 0  0.003899937430954314 0.01178964579439611 0  0.00824045576413213 0.01179344211650992 0  0.0002078460969076221 0.003479999999991815 0  0.01978850594531548 0.003483415399629333 0  0.003424002220657234 0.0002053618445880372 0  0.01979254977368636 0.008765185815844821 0  0.0002079873092101698 0.008760161881310976 0  0.01678154229018126 0.01182442607549297 0  0.01727274415307985 0.0002248925371768773 0  0.002738095238090106 0.01179380347529011 0  0.01979215390309125 0.002520000000007523 0  0.0002078460969076217 0.002519999999994515 0  0.007262304885843406 0.0002024697694887917 0  0.00250000000000482 0.0002061965247109642 0  0.01979217402745079 0.009720102811022679 0  0.0002078532362884826 0.009719922724330445 0  0.01775621868387764 0.01178849440176412 0  0.0182169689601969 0.0001933026553644993 0  0.001788515484759992 0.01178939860996305 0  0.000200155249136635 0.001559925009654356 0  0.01978715651190513 0.001563831723424565 0  0.001569046683787388 0.0002108820145028341 0  0.01979217582511283 0.01068026059139825 0  0.0002081382544979005 0.01044048350356933 0  0.01979155267337484 0.006843404395469016 0  0.000187968684013261 0.005389055003690767 0  0.01979011858049167 0.005410500294388559 0  0.0001882816162553076 0.006828930252360772 0  0.009160250026290132 0.0002020789092408286 0  0.01082190557937627 0.0002015672655486539 0  0.01248354193408898 0.0002006047011554212 0  0.006330972935302184 0.01178523861319707 0  0.01175621854128248 0.01177775247620325 0  0.0139558814926981 0.0002048302144585014 0  0.01009626095885685 0.01177807292970702 0  0.01322663902696712 0.0
[...]
<PointData  Vectors="U [m]"> 
<DataArray  type="Float64"  Name="U [m]"  NumberOfComponents="3" format="ascii">-1.6778899044576003e-06 -3.2762336267326846e-05 0.0000000000000000e+00  0.0000000000000000e+00 0.0000000000000000e+00 0.0000000000000000e+00  0.0000000000000000e+00 0.0000000000000000e+00 0.0000000000000000e+00  1.6941742663509311e-06 -3.2749425403758485e-05 0.0000000000000000e+00  -2.1289900909538939e-06 -3.2757682016018623e-05 0.0000000000000000e+00  -2.5829611707101241e-06 -3.2740982095364249e-05 0.0000000000000000e+00  -3.0384240037074410e-06 -3.2712736237457109e-05 0.0000000000000000e+00  -3.4961240270471470e-06 -3.2672679043749800e-05 0.0000000000000000e+00  -3.9565845508383843e-06 -3.2620147311128671e-05 0.0000000000000000e+00  -4.4201806723309991e-06 -3.2554905719313412e-05 0.0000000000000000e+00  -4.8870623909229130e-06 -3.2476437411079449e-05 0.0000000000000000e+00  -5.3572316282373057e-06 -3.2383908842637085e-05 0.0000000000000000e+00  -5.8313324924802085e-06 -3.2277126957030408e-05 0.0000000000000000e+00  -6.3091658452174327e-06 -3.2155143938958855e-05 0.0000000000000000e+00  -6.7905589671640124e-06 -3.2017413510077866e-05 0.0000000000000000e+00  -7.2754477290896522e-06 -3.1863445898319837e-05 0.0000000000000000e+00  -7.7636332394246147e-06 -3.1692644740081833e-05 0.0000000000000000e+00  -8.2548678711032495e-06 -3.1504446547968689e-05 0.0000000000000000e+00  -8.7488289691248928e-06 -3.1298265399978881e-05 0.0000000000000000e+00  -9.2450750412342285e-06 -3.1073451903579328e-05 0.0000000000000000e+00  -9.7433271932634512e-06 -3.0829441554744997e-05 0.0000000000000000e+00  -1.0243469624989863e-05 -3.0565803375083976e-05 0.0000000000000000e+00  -1.0744838479198866e-05 -3.0281686479691346e-05 0.0000000000000000e+00  -1.1246181650557481e-05 -2.9976315030420247e-05 0.0000000000000000e+00  -1.1747152653248872e-05 -2.9649268158235506e-05 0.0000000000000000e+00  -1.2248409594649395e-05 -2.9299864547580328e-05 0.0000000000000000e+00  -1.2747564637941785e-05 -2.8927226948217342e-05 0.0000000000000000e+00  -1.3243717004528333e-05 -2.8531057097805120e-05 0.0000000000000000e+00  -1.3736911694794236e-05 -2.8110040225644735e-05 0.0000000000000000e+00  -1.4225650185606562e-05 -2.7663319108012369e-05 0.0000000000000000e+00  -1.4710001392090297e-05 -2.7189750659980261e-05 0.0000000000000000e+00  -1.5187389636205118e-05 -2.6688333901203595e-05 0.0000000000000000e+00  -1.5655800626216157e-05 -2.6158352055051682e-05 0.0000000000000000e+00  -1.6114063510683456e-05 -2.5598912744339424e-05 0.0000000000000000e+00  -1.6560880167388843e-05 -2.5008422224449148e-05 0.0000000000000000e+00  -1.6994513322855861e-05 -2.4384419443997285e-05 0.0000000000000000e+00  -1.7411389746037547e-05 -2.3725776607876579e-05 0.0000000000000000e+00  -1.7808316432030446e-05 -2.3031079897966197e-05 0.0000000000000000e+00  -1.8183778716819358e-05 -2.2296797652158149e-05 0.0000000000000000e+00  -1.8531810359035645e-05 -2.1521361607623452e-05 0.0000000000000000e+00  -1.8847481489650163e-05 -2.0701857176352122e-05 0.0000000000000000e+00  -1.9126004103031336e-05 -1.9833546366216936e-05 0.0000000000000000e+00  -1.9358974574955374e-05 -1.8912044869532302e-05 0.0000000000000000e+00  -1.9537570078557419e-05 -1.7930746028761451e-05 0.0000000000000000e+00  -1.9648634470662026e-05 -1.6881688535571901e-05 0.0000000000000000e+00  -1.9674336888003915e-05 -1.5754118518654382e-05 0.0000000000000000e+00  -1.9591781756819712e-05 -1.4534011632642554e-05 0.0000000000000000e+00  -1.9366924787327318e-05 -1.3200112293071057e-05 0.0000000000000000e+00  -1.8945301898550629e-05 -1.1720396672400996e-05 0.0000000000000000e+00  -1.8236378705990303e-05 -1.0041144890938092e-05 0.0000000000000000e+00  -1.7051809213241171e-05 -8.0767078193436868e-06 0.0000000000000000e+00  -1.5016718859184000e-05 -5.7042694160216432e-06 0.0000000000000000e+00  -1.1158422385672859e-05 -2.7277238134557758e-06 0.0000000000000000e+00  -5.3316362782262218e-06 -5.9299880399673695e-06 0.0000000000000000e+00  -8.4571190669137031e-06 -8.4161586229710191e-06 0.0000000000000000e+00  -1.0284138525607282e-05 -9.4533320119612375e-06 0.0000000000000000e+00  -1.1399336010393478e-05 -1.0018548767754538e-05 0.0000000000000000e+00  -1.2154984993293356e-05 -1.0287833778319212e-05 0.0000000000000000e+00  -1.2630852498154986e-05 -1.0386620550859457e-05 0.0000000000000000e+00  -1.2906505644197397e-05 -1.0390507486298158e-05 0.0000000000000000e+00  -1.3037826477679955e-05 -1.0324449005893624e-05 0.0000000000000000e+00  -1.3062551863651580e-05 -1.0206358735903905e-05 0.0000000000000000e+00  -1.3005249774861931e-05 -1.0051632291538576e-05 0.0000000000000000e+00  -1.2881194265138119e-05 -9.8821099850349290e-06 0.0000000000000000e+00  -1.2705913347870201e-05 -9.6943605709939989e-06 0.0000000000000000e+00  -1.2483976824827989e-05 -9.4969412286199109e-06 0.0000000000000000e+00  -1.2227218280183447e-05 -9.2937974163702015e-06 0.0000000000000000e+00  -1.1937886570859803e-05 -9.0858572579878767e-06 0.0000000000000000e+00  -1.1625576068223779e-05 -8.8716833838174593e-06 0.0000000000000000e+00  -1.1288625290202157e-05 -8.6670158262868975e-06 0.0000000000000000e+00  -1.0931078337810001e-05 -8.4619399836893511e-06 0.0000000000000000e+00  -1.0557124854293177e-05 -8.2611559313146042e-06 0.0000000000000000e+00  -1.0167734342918796e-05 -8.0636167336167084e-06 0.0000000000000000e+00  -9.7673057765087952e-06 -7.8712075549715733e-06 0.0000000000000000e+00  -9.3545659253067294e-06 -7.6888124382088525e-06 0.0000000000000000e+00  -8.9313939486072509e-06 -7.5110761754930880e-06 0.0000000000000000e+00  -8.4998196711705706e-06 -7.3416818651648802e-06 0.0000000000000000e+00  -8.0601101633859030e-06 -7.1801920653573249e-06 0.0000000000000000e+00  -7.6138619541198746e-06 -7.0275030015818348e-06 0.0000000000000000e+00  -7.1614821706616838e-06 -6.8814587626624842e-06 0.0000000000000000e+00  -6.7045089999015591e-06 -6.7442884696638006e-06 0.0000000000000000e+00  -6.2423410587139404e-06 -6.6184781054873632e-06 0.0000000000000000e+00  -5.7757184054105088e-06 -6.4995286073523669e-06 0.0000000000000000e+00  -5.3055223029145500e-06 -6.3910271035777638e-06 0.0000000000000000e+00  -4.8324092881427779e-06 -6.2895751629855747e-06 0.0000000000000000e+00  -4.3567288207613946e-06 -6.1991493192842028e-06 0.0000000000000000e+00  -3.8781784770159108e-06 -6.1188399089493487e-06 0.0000000000000000e+00  -3.3973306558047969e-06 -6.0465361621069397e-06 0.0000000000000000e+00  -2.9154448361479115e-06 -5.9833750329921884e-06 0.0000000000000000e+00  -2.4315117691763058e-06 -5.9307722305452676e-06 0.0000000000000000e+00  -1.9466442026204662e-06 -5.8880786477659606e-06 0.0000000000000000e+00  -1.4605548797383982e-06 -5.8539330092327017e-06 0.0000000000000000e+00  -9.7378383842076777e-07 -5.8306699834498041e-06 0.0000000000000000e+00  -4.8662274260362315e-07 -5.8150752750144172e-06 0.0000000000000000e+00  3.9318453315087876e-10 -5.8100451740772393e-06 0.0000000000000000e+00  4.8746280235411340e-07 -5.8155614958481210e-06 0.0000000000000000e+00  9.7481679863182551e-07 -5.8286515352617271e-06 0.0000000000000000e+00  1.4617329912766984e-06 -5.8536185783585122e-06 0.0000000000000000e+00  1.9473638455392375e-06 -5.8861912028020840e-06 0.0000000000000000e+00  2.4320012592000258e-06 -5.9299831018949043e-06 0.0000000000000000e+00  2.9157395768533589e-06 -5.9821464178235786e-06 0.0000000000000000e+00  3.3978873625556657e-06 -6.0435188040072352e-06 0.0000000000000000e+00  3.8784465936706755e-06 -6.1165429139011066e-06 0.0000000000000000e+00  4.3570797912854470e-06 -6.1967267706128061e-06 0.0000000000000000e+00  4.8333216020977385e-06 -6.2876907143439470e-06 0.0000000000000000e+00  5.3063706233007682e-06 -6.3857577115960591e-06 0.0000000000000000e+00  5.7760272059047055e-06 -6.4956360224610736e-06 0.0000000000000000e+00  6.2426005669158509e-06 -6.6146139410009256e-06 0.0000000000000000e+00  6.7048810430237787e-06 -6.7405857922695848e-06 0.0000000000000000e+00  7.1626942807751330e-06 -6.8769005302493531e-06 0.0000000000000000e+00  7.6147541003450840e-06 -7.0216485725852882e-06 0.0000000000000000e+00  8.0611325018078770e-06 -7.1752308581224490e-06 0.0000000000000000e+00  8.5002210474788728e-06 -7.3345870106266639e-06 0.0000000000000000e+00  8.9311087565046545e-06 -7.5055129081889453e-06 0.0000000000000000e+00  9.3544131026719843e-06 -7.6829434607914001e-06 0.0000000000000000e+00  9.7672464126723676e-06 -7.8654904999597712e-06 0.0000000000000000e+00  1.0169261081677022e-05 -8.0565548963511247e-06 0.0000000000000000e+00  1.0557413329845301e-05 -8.2523266773683821e-06 0.0000000000000000e+00  1.0931880458401657e-05 -8.4540119250368542e-06 0.0000000000000000e+00  1.1289991316239010e-05 -8.6586310984349052e-06 0.0000000000000000e+00  1.1627298841924411e-05 -8.8665945862984974e-06 0.0000000000000000e+00  1.1941849355515475e-05 -9.0722634827300296e-06 0.0000000000000000e+00  1.2229432390609446e-05 -9.2813627382497645e-06 0.0000000000000000e+00  1.2485525355712311e-05 -9.4897806593227776e-06 0.0000000000000000e+00  1.2704832875935648e-05 -9.6873266888476121e-06 0.0000000000000000e+00  1.2883454583160702e-05 -9.8735119284790459e-06 0.0000000000000000e+00  1.3011226217539517e-05 -1.0043407668247305e-05 0.0000000000000000e+00  1.3068933031772173e-05 -1.0192880286658003e-05 0.0000000000000000e+00  1.3047796779268475e-05 -1.0307159753743610e-05 0.0000000000000000e+00  1.2917337416733307e-05 -1.0383466555599588e-05 0.0000000000000000e+00  1.2658420960421000e-05 -1.0380353872616432e-05 0.0000000000000000e+00  1.2214981316765647e-05 -1.0248917841223747e-05 0.0000000000000000e+00  1.1441246460047149e-05 -1.0034319652562009e-05 0.0000000000000000e+00  1.0323114286279943e-05 -9.4704802051201892e-06 0.0000000000000000e+00  8.2375188137449619e-06 -8.3217026944096896e-06 0.0000000000000000e+00  5.3305557970180265e-06 -5.9694724904274850e-06 0.0000000000000000e+00  1.1119821031721464e-05 -2.7014430627155588e-06 0.0000000000000000e+00  1.5027060343723323e-05 -5.6781549718909240e-06 0.0000000000000000e+00  1.7067703308641582e-05 -8.0616553697206806e-06 0.0000000000000000e+00  1.8241615937833964e-05 -1.0027367146527311e-05 0.0000000000000000e+00  1.8950932694790944e-05 -1.1707745622624549e-05 0.0000000000000000e+00  1.9371859457147881e-05 -1.3188581682368113e-05 0.0000000000000000e+00  1.9596253606990273e-05 -1.4522337633332375e-05 0.0000000000000000e+00  1.9678137884820512e-05 -1.5741790964686161e-05 0.0000000000000000e+00  1.9652039317080432e-05 -1.6868461685510469e-05 0.0000000000000000e+00  1.9541620454641554e-05 -1.7917070584464409e-05 0.0000000000000000e+00  1.9363747125418363e-05 -1.8898309341226043e-05 0.0000000000000000e+00  1.9130945543845649e-05 -1.9820115933151310e-05 0.0000000000000000e+00  1.8852769332405299e-05 -2.0688654519451190e-05 0.0000000000000000e+00  1.8536708277342717e-05 -2.1508657439476447e-05 0.0000000000000000e+00  1.8189086398146251e-05 -2.2283804139554061e-05 0.0000000000000000e+00  1.7814659615544550e-05 -2.3017506397982460e-05 0.0000000000000000e+00  1.7417488334923151e-05 -2.3712457577311141e-05 0.0000000000000000e+00  1.7000957750024122e-05 -2.4370883450101925e-05 0.0000000000000000e+00  1.6568241973544508e-05 -2.4994660614138176e-05 0.0000000000000000e+00  1.6121424337926285e-05 -2.5585826033085364e-05 0.0000000000000000e+00  1.5662926713422746e-05 -2.6145618338899463e-05 0.0000000000000000e+00  1.5194535207059593e-05 -2.6675427305215772e-05 0.0000000000000000e+00  1.4718075539557193e-05 -2.7176433341275327e-05 0.0000000000000000e+00  1.4234628206426524e-05 -2.7649875132459208e-05 0.0000000000000000e+00  1.3745912787198112e-05 -2.8096665089889690e-05 0.0000000000000000e+00  1.3252843607921237e-05 -2.8517913531870201e-05 0.0000000000000000e+00  1.2756321943800154e-05 -2.8914392094009256e-05 0.0000000000000000e+00  1.2257602687177352e-05 -2.9286904141010593e-05 0.0000000000000000e+00  1.1757448930189624e-05 -2.9636253716156383e-05 0.0000000000000000e+00  1.1256235872458088e-05 -2.9963157355415188e-05 0.0000000000000000e+00  1.0755179273179402e-05 -3.0268332262572049e-05 0.0000000000000000e+00  1.0254427903866237e-05 -3.0552603336677969e-05 0.0000000000000000e+00  9.7548042968425688e-06 -3.0816412469449036e-05 0.0000000000000000e+00  9.2567330759645991e-06 -3.1060460934585596e-05 0.0000000000000000e+00  8.7605226843454471e-06 -3.1285320124637400e-05 0.0000000000000000e+00  8.2668891590714766e-06 -3.1491538813413917e-05 0.0000000000000000e+00  7.7760554467551175e-06 -3.1679736341781351e-05 0.0000000000000000e+00  7.2880724298122643e-06 -3.1850559833661899e-05 0.0000000000000000e+00  6.8035179364470047e-06 -3.2004457444968549e-05 0.0000000000000000e+00  6.3224247364954801e-06 -3.2142189242194084e-05 0.0000000000000000e+00  5.8450359565254064e-06 -3.2264160362013953e-05 0.0000000000000000e+00  5.3712346089999475e-06 -3.2371082157170551e-05 0.0000000000000000e+00  4.9009874328934930e-06 -3.2463567918141107e-05 0.0000000000000000e+00  4.4346329163617629e-06 -3.2542040093551324e-05 0.0000000000000000e+00  3.9718179117182637e-06 -3.2607206395593048e-05 0.0000000000000000e+00  3.5113387295309583e-06 -3.2659586965231777e-05 0.0000000000000000e+00  3.0539610813818243e-06 -3.2699498492260599e-05 0.0000000000000000e+00  2.5987697668610499e-06 -3.2727817200899622e-05 0.0000000000000000e+00  2.1454888141913247e-06 -3.2744738436523338e-05 0.0000000000000000e+00  1.6917592225345271e-06 -3.2305688850651321e-05 0.0000000000000000e+00  1.6913105372289323e-06 -3.1872571305372140e-05 0.0000000000000000e+00  1.6918880991695520e-06 -3.1451850070648998e-05 0.0000000000000000e+00  1.6919627481008258e-06 -3.1044060080060382e-05 0.0000000000000000e+00  1.6937302192897844e-06 -3.0650324500836906e-05 0.0000000000000000e+00  1.6951736069398064e-06 -3.0271148350375840e-05 0.0000000000000000e+00  1.6959541697371508e-06 -2.9907483975774689e-05 0.0000000000000000e+00  1.6952900649843281e-06 -2.9558335211956670e-05 0.0000000000000000e+00  1.6931062057194669e-06 -2.9224331517518885e-05 0.0000000000000000e+00  1.6887713005417162e-06 -2.8904641246820766e-05 0.0000000000000000e+00  1.6820060140078801e-06 -2.8600650988625643e-05 0.0000000000000000e+00  1.6722421350307817e-06 -2.8310551087806135e-05 0.0000000000000000e+00  1.6597991982778694e-06 -2.8034167393920681e-05 0.0000000000000000e+00  1.6442875273631434e-06 -2.7772337952237912e-05 0.0000000000000000e+00  1.6248321816563320e-06 -2.7523173019222590e-05 0.0000000000000000e+00  1.6022253129305193e-06 -2.7287413180864073e-05 0.0000000000000000e+00  1.5756786103537884e-06 -2.7063146221628740e-05 0.0000000000000000e+00  1.5465275074039022e-06 -2.6852561215776288e-05 0.0000000000000000e+00  1.5129337174061000e-06 -2.6653292306977194e-05 0.0000000000000000e+00  1.4756097972004537e-06 -2.6464142253988960e-05 0.0000000000000000e+00  1.4344471740681313e-06 -2.6287664824581421e-05 0.0000000000000000e+00  1.3906447708607242e-06 -2.6120406387768683e-05 0.0000000000000000e+00  1.3434068463227324e-06 -2.5964006579990920e-05 0.0000000000000000e+00  1.2924985299696968e-06 -2.5816642983104878e-05 0.0000000000000000e+00  1.2390485094274658e-06 -2.5679964069544942e-05 0.0000000000000000e+00  1.1820969871081344e-06 -2.5552640531938903e-05 0.0000000000000000e+00  1.1224225576628734e-06 -2.5433429175280206e-05 0.0000000000000000e+00  1.0601766342668283e-06 -2.5323505018571532e-05 0.0000000000000000e+00  9.9512425234777997e-07 -2.5221132629713626e-05 0.0000000000000000e+00  9.2824219170782797e-07 -2.5128562706112267e-05 0.0000000000000000e+00  8.5901695570032477e-07 -2.5043575329793057e-05 0.0000000000000000e+00  7.8778942900248105e-07 -2.4965840009789997e-05 0.0000000000000000e+00  7.1491386575332954e-07 -2.4896686442651849e-05 0.0000000000000000e+00  6.4029459415950373e-07 -2.4834941910621829e-05 0.0000000000000000e+00  5.6441349130176520e-07 -2.4780930516212589e-05 0.0000000000000000e+00  4.8708515419874209e-07 -2.4733472687392431e-05 0.0000000000000000e+00  4.0897246501932536e-07 -2.4694399185956610e-05 0.0000000000000000e+00  3.2981496144943733e-07 -2.4662711552186196e-05 0.0000000000000000e+00  2.5002766089942554e-07 -2.4637352916027654e-05 0.0000000000000000e+00  1.6972171709073729e-07 -2.4619834152842275e-05 0.0000000000000000e+00  8.9037953687160132e-08 -2.4609181322893536e-05 0.0000000000000000e+00  8.2355982262935035e-09 -2.4606137059359130e-05 0.0000000000000000e+00  -7.2711000800118964e-08 -2.4609342923860204e-05 0.0000000000000000e+00  -1.5329276687621309e-07 -2.4620103472293909e-05 0.0000000000000000e+00  -2.3370983098974536e-07 -2.4638712604608778e-05 0.0000000000000000e+00  -3.1348145074932943e-07 -2.4663594432800171e-05 0.0000000000000000e+00  -3.9262751086012120e-07 -2.4696068085801769e-05 0.0000000000000000e+00  -4.7083565785491990e-07 -2.4735573607587609e-05 0.0000000000000000e+00  -5.4800036075656254e-07 -2.4782967781802103e-05 0.0000000000000000e+00  -6.2396378928642347e-07 -2.4837523233210448e-05 0.0000000000000000e+00  -6.9849825570950485e-07 -2.4899127963655002e-05 0.0000000000000000e+00  -7.7149121155631126e-07 -2.4969192114360222e-05 0.0000000000000000e+00  -8.4259543374379577e-07 -2.5046611814274915e-05 0.0000000000000000e+00  -9.1185432337853978e-07 -2.5132521848374320e-05 0.0000000000000000e+00  -9.7903408299127126e-07 -2.5225569622264365e-05 0.0000000000000000e+00  -1.0435187428770125e-06 -2.5327197717587223e-05 0.0000000000000000e+00  -1.1060230181985269e-06 -2.5438215220848660e-05 0.0000000000000000e+00  -1.1656418016090072e-06 -2.5557004465519662e-05 0.0000000000000000e+00  -1.2225937836860306e-06 -2.5685436335101425e-05 0.0000000000000000e+00  -1.2763532904171660e-06 -2.5822689756596865e-05 0.0000000000000000e+00  -1.3270937831927374e-06 -2.5970161265573005e-05 0.0000000000000000e+00  -1.3747323615817898e-06 -2.6126636371277665e-05 0.0000000000000000e+00  -1.4182586184959319e-06 -2.6293128177596487e-05 0.0000000000000000e+00  -1.4592561529335187e-06 -2.6471517677052692e-05 0.0000000000000000e+00  -1.4963345804268441e-06 -2.6659762230234002e-05 0.0000000000000000e+00  -1.5298057894389844e-06 -2.6860256694140706e-05 0.0000000000000000e+00  -1.5600352060596558e-06 -2.7071294390131646e-05 0.0000000000000000e+00  -1.5854393631601914e-06 -2.7294795551700238e-05 0.0000000000000000e+00  -1.6084290654829443e-06 -2.7531731649810888e-05 0.0000000000000000e+00  -1.6276526459735604e-06 -2.7780573589541978e-05 0.0000000000000000e+00  -1.6434826260145439e-06 -2.8043464465813225e-05 0.0000000000000000e+00  -1.6560264009309180e-06 -2.8319741904845214e-05 0.0000000000000000e+00  -1.6656005418562818e-06 -2.8610289019706211e-05 0.0000000000000000e+00  -1.6724378797966287e-06 -2.8914744007363020e-05 0.0000000000000000e+00  -1.6768675042379945e-06 -2.9234657490319169e-05 0.0000000000000000e+00  -1.6795006587381308e-06 -2.9568563122100452e-05 0.0000000000000000e+00  -1.6790367770723574e-06 -2.9917419884077985e-05 0.0000000000000000e+00  -1.6789091878235296e-06 -3.0282604223949729e-05 0.0000000000000000e+00  -1.6779559697192785e-06 -3.0661345800913854e-05 0.0000000000000000e+00  -1.6757810016463204e-06 -3.1055650843821491e-05 0.0000000000000000e+00  -1.6750976576657810e-06 -3.1463632377469624e-05 0.0000000000000000e+00  -1.6742135327438351e-06 -3.1885074862516729e-05 0.0000000000000000e+00  -1.6756625085336785e-06 -3.2318657437104449e-05 0.0000000000000000e+00  1.1091094425677887e-06 -2.5277747059937842e-05 0.0000000000000000e+00  -5.8873647759086304e-06 -7.3662330643153990e-06 0.0000000000000000e+00  -1.2178502550478058e-06 -6.6775504050593607e-06 0.0000000000000000e+00  5.5969151794467557e-07 -2.4775349007786110e-05 0.0000000000000000e+00  -6.4180697010200502e-07 -2.4835254603073388e-05 0.0000000000000000e+00  -1.3082371339022609e-06 -2.5636445526152510e-05 0.0000000000000000e+00  5.0270996947539005e-06 -7.2193062104007439e-06 0.0000000000000000e+00  -4.1483687487759514e-08 -2.4632228953441533e-05 0.0000000000000000e+00  1.3751562995013842e-05 -2.7442068067312040e-05 0.0000000000000000e+00  -1.3737476248785706e-05 -2.7515986448382559e-05 0.0000000000000000e+00  8.16904864661260