<?xml version="1.0"?>
<VTKFile type="UnstructuredGrid"  version="0.1"  >
<UnstructuredGrid>
<Piece  NumberOfPoints="5042" NumberOfCells="9814">
<Points>
<DataArray  type="Float64"  NumberOfComponents="3"  format="ascii">0 0 0  0 0.012 0  0.02 0.012 0  0.02 0 0  0 0.0002399999999995596 0  0 0.0004799999999990798 0  0 0.0007199999999986036 0  0 0.0009599999999982128 0  0 0.001199999999997798 0  0 0.001439999999997451 0  0 0.001679999999996899 0  0 0.001919999999996208 0  0 0.002159999999995478 0  0 0.002399999999994887 0  0 0.002639999999994144 0  0 0.002879999999993544 0  0 0.003119999999992787 0  0 0.003359999999992186 0  0 0.003599999999991443 0  0 0.003839999999990853 0  0 0.004079999999990099 0  0 0.004319999999989343 0  0 0.004559999999988863 0  0 0.004799999999988168 0  0 0.00503999999998741 0  0 0.005279999999986652 0  0 0.005519999999986045 0  0 0.005759999999985477 0  0 0.00599999999998489 0  0 0.006239999999985699 0  0 0.006479999999986128 0  0 0.006719999999986353 0  0 0.006959999999987278 0  0 0.007199999999988255 0  0 0.007439999999988604 0  0 0.007679999999988715 0  0 0.007919999999989496 0  0 0.008159999999990475 0  0 0.008399999999991451 0  0 0.008639999999992428 0  0 0.008879999999992576 0  0 0.00911999999999182 0  0 0.00935999999999197 0  0 0.009599999999992948 0  0 0.009839999999993921 0  0 0.0100799999999949 0  0 0.01031999999999588 0  0 0.01055999999999685 0  0 0.01079999999999776 0  0 0.01103999999999727 0  0 0.01127999999999707 0  0 0.01151999999999805 0  0 0.01175999999999903 0  0.0002380952380947884 0.012 0  0.000476190476189585 0.012 0  0.0007142857142843371 0.012 0  0.0009523809523790612 0.012 0  0.001190476190473828 0.012 0  0.001428571428568669 0.012 0  0.001666666666663585 0.012 0  0.00190476190475845 0.012 0  0.002142857142853331 0.012 0  0.002380952380948226 0.012 0  0.002619047619042884 0.012 0  0.002857142857137328 0.012 0  0.003095238095231924 0.012 0  0.003333333333326469 0.012 0  0.003571428571421069 0.012 0  0.003809523809515577 0.012 0  0.0040476190476099 0.012 0  0.004285714285704363 0.012 0  0.004523809523799022 0.012 0  0.004761904761893679 0.012 0  0.004999999999988168 0.012 0  0.005238095238082656 0.012 0  0.005476190476177314 0.012 0  0.005714285714271973 0.012 0  0.005952380952366429 0.012 0  0.006190476190460674 0.012 0  0.006428571428555268 0.012 0  0.006666666666649926 0.012 0  0.006904761904744551 0.012 0  0.007142857142838951 0.012 0  0.00738095238093356 0.012 0  0.007619047619028219 0.012 0  0.007857142857122827 0.012 0  0.008095238095217089 0.012 0  0.008333333333311229 0.012 0  0.00857142857140537 0.012 0  0.008809523809500109 0.012 0  0.009047619047595282 0.012 0  0.009285714285690453 0.012 0  0.009523809523785304 0.012 0  0.009761904761879462 0.012 0  0.009999999999973941 0.012 0  0.01023809523806981 0.012 0  0.01047619047616602 0.012 0  0.01071428571426203 0.012 0  0.01095238095235735 0.012 0  0.01119047619045252 0.012 0  0.01142857142854813 0.012 0  0.01166666666664433 0.012 0  0.01190476190474054 0.012 0  0.01214285714283675 0.012 0  0.01238095238093295 0.012 0  0.01261904761902916 0.012 0  0.01285714285712483 0.012 0  0.01309523809522001 0.012 0  0.01333333333331529 0.012 0  0.01357142857141128 0.012 0  0.01380952380950748 0.012 0  0.01404761904760369 0.012 0  0.0142857142856999 0.012 0  0.0145238095237961 0.012 0  0.01476190476189164 0.012 0  0.01499999999998682 0.012 0  0.01523809523808199 0.012 0  0.01547619047617753 0.012 0  0.01571428571427374 0.012 0  0.01595238095236994 0.012 0  0.01619047619046615 0.012 0  0.01642857142856235 0.012 0  0.01666666666665855 0.012 0  0.01690476190475476 0.012 0  0.01714285714285096 0.012 0  0.01738095238094716 0.012 0  0.01761904761904337 0.012 0  0.01785714285713852 0.012 0  0.01809523809523265 0.012 0  0.01833333333332702 0.012 0  0.01857142857142277 0.012 0  0.01880952380951898 0.012 0  0.01904761904761518 0.012 0  0.01928571428571139 0.012 0  0.01952380952380759 0.012 0  0.0197619047619038 0.012 0  0.02 0.01175999999999921 0  0.02 0.01151999999999982 0  0.02 0.01128000000000058 0  0.02 0.01104000000000134 0  0.02 0.0108000000000021 0  0.02 0.01056000000000286 0  0.02 0.01032000000000362 0  0.02 0.01008000000000454 0  0.02 0.00984000000000684 0  0.02 0.009600000000007925 0  0.02 0.009360000000008683 0  0.02 0.00912000000000944 0  0.02 0.008880000000010199 0  0.02 0.008640000000010957 0  0.02 0.008400000000011714 0  0.02 0.008160000000011484 0  0.02 0.007920000000010507 0  0.02 0.007680000000010603 0  0.02 0.007440000000011084 0  0.02 0.00720000000001178 0  0.02 0.00696000000001254 0  0.02 0.0067200000000133 0  0.02 0.00648000000001391 0  0.02 0.006240000000014477 0  0.02 0.006000000000015067 0  0.02 0.005760000000014261 0  0.02 0.005520000000013832 0  0.02 0.005280000000013609 0  0.02 0.005040000000012686 0  0.02 0.004800000000011711 0  0.02 0.004560000000011364 0  0.02 0.004320000000011255 0  0.02 0.004080000000010475 0  0.02 0.003840000000009497 0  0.02 0.003600000000008525 0  0.02 0.00336000000000755 0  0.02 0.0031200000000074 0  0.02 0.002880000000008161 0  0.02 0.002640000000008011 0  0.02 0.002400000000007035 0  0.02 0.002160000000006062 0  0.02 0.001920000000005088 0  0.02 0.001680000000004112 0  0.02 0.00144000000000314 0  0.02 0.001200000000002232 0  0.02 0.0009600000000027208 0  0.02 0.0007200000000029232 0  0.02 0.0004800000000019476 0  0.02 0.0002400000000009738 0  0.01976190476190379 0 0  0.0195238095238076 0 0  0.01928571428571281 0 0  0.01904761904761866 0 0  0.01880952380952451 0 0  0.01857142857143036 0 0  0.01833333333333621 0 0  0.01809523809524206 0 0  0.01785714285714791 0 0  0.01761904761905376 0 0  0.01738095238095961 0 0  0.01714285714286546 0 0  0.01690476190477131 0 0  0.01666666666667694 0 0  0.01642857142858176 0 0  0.01619047619048657 0 0  0.01595238095239139 0 0  0.01571428571429621 0 0  0.0154761904762007 0 0  0.01523809523810551 0 0  0.01500000000001066 0 0  0.01476190476191651 0 0  0.01452380952382236 0 0  0.01428571428572822 0 0  0.01404761904763407 0 0  0.01380952380953992 0 0  0.01357142857144577 0 0  0.01333333333335162 0 0  0.01309523809525747 0 0  0.01285714285716308 0 0  0.01261904761906799 0 0  0.01238095238097281 0 0  0.01214285714287772 0 0  0.01190476190478333 0 0  0.01166666666668918 0 0  0.01142857142859503 0 0  0.01119047619050029 0 0  0.01095238095240511 0 0  0.01071428571430993 0 0  0.01047619047621507 0 0  0.0102380952381209 0 0  0.01000000000002641 0 0  0.009761904761930536 0 0  0.009523809523834321 0 0  0.0092857142857383 0 0  0.009047619047642974 0 0  0.008809523809547793 0 0  0.008571428571452176 0 0  0.008333333333355961 0 0  0.008095238095259746 0 0  0.00785714285716353 0 0  0.007619047619067313 0 0  0.0073809523809711 0 0  0.007142857142875417 0 0  0.006904761904780237 0 0  0.006666666666684943 0 0  0.006428571428588954 0 0  0.006190476190492738 0 0  0.005952380952396523 0 0  0.005714285714300309 0 0  0.005476190476204094 0 0  0.00523809523810854 0 0  0.00500000000001336 0 0  0.004761904761918179 0 0  0.004523809523822626 0 0  0.004285714285726411 0 0  0.004047619047630201 0 0  0.003809523809533987 0 0  0.003571428571437774 0 0  0.003333333333341564 0 0  0.00309523809524535 0 0  0.00285714285714914 0 0  0.002619047619052926 0 0  0.002380952380956713 0 0  0.002142857142861564 0 0  0.001904761904767415 0 0  0.001666666666673037 0 0  0.001428571428577278 0 0  0.001190476190481061 0 0  0.0009523809523848542 0 0  0.0007142857142886372 0 0  0.0004761904761924236 0 0  0.0002380952380962136 0 0  0.01318447728116931 0.0002054724756376096 0  0.00703571411504737 0.01179297346886515 0  0.009393957111202857 0.01178566829002903 0  0.01152411987223061 0.0002073705854719248 0  0.008209442714565999 0.0002293661341580651 0  0.006071428571444631 0.0002061965247114262 0  0.01252387159300391 0.01177721496147268 0  0.009864279959895488 0.0002092373795933997 0  0.01978984669846277 0.006132080769979573 0  0.0001918594623178119 0.006117810553728187 0  0.01418376177829061 0.01177611392099403 0  0.005373436206076422 0.01179331958565476 0  0.01085720811379693 0.01178395844817033 0  0.0146509645290248 0.0001956879809415279 0  0.0001755752538913103 0.00465949515529163 0  0.01978834567063831 0.004691789003433425 0  0.004631698329186475 0.0002047751934267602 0  0.01979087220358429 0.00756550010833225 0  0.0001995340756551599 0.007560008952131378 0  0.01558464754944247 0.01178986332668023 0  0.01605275139821281 0.0002042521088142625 0  0.003899937430954314 0.01178964579439611 0  0.00824045576413213 0.01179344211650992 0  0.0002078460969076221 0.003479999999991815 0  0.01978850594531548 0.003483415399629333 0  0.003424002220657234 0.0002053618445880372 0  0.01979254977368636 0.008765185815844821 0  0.0002079873092101698 0.008760161881310976 0  0.01678154229018126 0.01182442607549297 0  0.01727274415307985 0.0002248925371768773 0  0.002738095238090106 0.01179380347529011 0  0.01979215390309125 0.002520000000007523 0  0.0002078460969076217 0.002519999999994515 0  0.007262304885843406 0.0002024697694887917 0  0.00250000000000482 0.0002061965247109642 0  0.01979217402745079 0.009720102811022679 0  0.0002078532362884826 0.009719922724330445 0  0.01775621868387764 0.01178849440176412 0  0.0182169689601969 0.0001933026553644993 0  0.001788515484759992 0.01178939860996305 0  0.000200155249136635 0.001559925009654356 0  0.01978715651190513 0.001563831723424565 0  0.001569046683787388 0.0002108820145028341 0  0.01979217582511283 0.01068026059139825 0  0.0002081382544979005 0.01044048350356933 0  0.01979155267337484 0.006843404395469016 0  0.000187968684013261 0.005389055003690767 0  0.01979011858049167 0.005410500294388559 0  0.0001882816162553076 0.006828930252360772 0  0.009160250026290132 0.0002020789092408286 0  0.01082190557937627 0.0002015672655486539 0  0.01248354193408898 0.0002006047011554212 0  0.006330972935302184 0.01178523861319707 0  0.01175621854128248 0.01177775247620325 0  0.0139558814926981 0.0002048302144585014 0  0.01009626095885685 0.01177807292970702 0  0.01322663902696712 0.0
[...]
<PointData  Scalars="VMS [Pa]"> 
<DataArray  type="Float64"  Name="VMS [Pa]"  format="ascii">3.6674655221591070e+06  5.8227693298178864e+09  5.8516808120447378e+09  3.7435743498132806e+06  4.3741619718567347e+06  4.5054819447653536e+06  4.8312728511718148e+06  4.8878471050781710e+06  4.9748038240298480e+06  4.9769833874804080e+06  4.8024156972926948e+06  5.1371761907733502e+06  5.5533200119564570e+06  6.9811564546349784e+06  8.8787895632805806e+06  1.1284876793189636e+07  1.4169298238440372e+07  1.7476701789833117e+07  2.1347570011969212e+07  2.5954238936964218e+07  3.0298214461153992e+07  3.4800464137771197e+07  3.9966159242651239e+07  4.5718424981630296e+07  5.3084114740185253e+07  5.8759229330340952e+07  6.5414880429064780e+07  7.3805589157267302e+07  8.2038416455996484e+07  9.1797248131193966e+07  1.0033463548641044e+08  1.1024341509595472e+08  1.2088965900465564e+08  1.3206262413574792e+08  1.4566101170420012e+08  1.6004949575548509e+08  1.7417432899318236e+08  1.9177276602683109e+08  2.1025021263685328e+08  2.2999672727214536e+08  2.5371246814304894e+08  2.7997305720177519e+08  3.1105862789846426e+08  3.4771302218657124e+08  3.9161060934551513e+08  4.4549627376609361e+08  5.1345177286895883e+08  6.0217324279814899e+08  7.2940850695789444e+08  9.0025414799741638e+08  1.2196610506892776e+09  1.6942930077669935e+09  1.7312646052853038e+09  4.5114999257375765e+09  2.6489815008146105e+09  1.8503740973899055e+09  1.4413526703670182e+09  1.1730429838826833e+09  9.7901207810865688e+08  8.3610426135650373e+08  7.3651789429752886e+08  6.5355025424884260e+08  5.9753959836330771e+08  5.4511851676797283e+08  5.0680611832821763e+08  4.7018449327225679e+08  4.4545999995910096e+08  4.1751637399191523e+08  4.0447817399002635e+08  3.8079099665227073e+08  3.6586012622916514e+08  3.5379612169401729e+08  3.3995299908008003e+08  3.3394401096253979e+08  3.2228103252378410e+08  3.1444162523228407e+08  3.0801220625213289e+08  3.0128257987083447e+08  2.9674215936768234e+08  2.9071938190302020e+08  2.8811988106476551e+08  2.8340434156092048e+08  2.7993123975682718e+08  2.7790451003389710e+08  2.7451128145184720e+08  2.7291964402042675e+08  2.7062543817504328e+08  2.6949905842773539e+08  2.6835473777165785e+08  2.6697157641752690e+08  2.6623878154166818e+08  2.6486541585073316e+08  2.6465057990889928e+08  2.6401224873099819e+08  2.6423930138762656e+08  2.6461521861449102e+08  2.6424334875155836e+08  2.6549438221245918e+08  2.6626180855559078e+08  2.6682143027676639e+08  2.6827146424090350e+08  2.6865800278549415e+08  2.7111302710051024e+08  2.7248268354552519e+08  2.7491527300287098e+08  2.7788784679356527e+08  2.7938037658675760e+08  2.8381635002163440e+08  2.8711322159759903e+08  2.9182132902052557e+08  2.9617554193385386e+08  3.0136344496255547e+08  3.0932306224429387e+08  3.1309761436096275e+08  3.2331467648678499e+08  3.3132389100150794e+08  3.4248133722362047e+08  3.5251543669696862e+08  3.6399193012426710e+08  3.8279732880691969e+08  4.0037821959845811e+08  4.2236721546086049e+08  4.4430872947021794e+08  4.7400220604226524e+08  5.0305229179469097e+08  5.3891729899676442e+08  5.9843031827650774e+08  6.5404532688563502e+08  7.3716366798436141e+08  8.2455940442575419e+08  9.4820522472867000e+08  1.2072015982560430e+09  1.4393997012429991e+09  1.9635347399274929e+09  2.9818158312121625e+09  4.1580276020693192e+09  1.6738419385002756e+09  1.7050561291348140e+09  1.2135702940604315e+09  9.0753842516891551e+08  7.2773162570620215e+08  6.0290814547943807e+08  5.1248726583172858e+08  4.4468734488468766e+08  3.9108477404759502e+08  3.4741555132048625e+08  3.1128206583775252e+08  2.8049797641030610e+08  2.5397988832203269e+08  2.3068367076618382e+08  2.0957586769194263e+08  1.9123592027646807e+08  1.7464651574177477e+08  1.5954291872341773e+08  1.4547534788141674e+08  1.3297449764818296e+08  1.2116629470421192e+08  1.1037598369101866e+08  9.9953502843959168e+07  9.0731086085757911e+07  8.1844322027529299e+07  7.3665682416715458e+07  6.6029363698042050e+07  5.8913539076661997e+07  5.2026681354443803e+07  4.6103216531130627e+07  4.0065602213707499e+07  3.4873006012351349e+07  2.9962807979729880e+07  2.5321593333122104e+07  2.1152013484795462e+07  1.7277687803071141e+07  1.3810995478853704e+07  1.1039734772122631e+07  8.6124360311949886e+06  6.8536444180316050e+06  5.6199720697540520e+06  5.0723398679256588e+06  4.9417364959373781e+06  4.8980402562075071e+06  5.1497177369844457e+06  4.8397129793447675e+06  4.8903262381869489e+06  4.5500942549677556e+06  4.5057290488776285e+06  3.5603511475320039e+06  4.5621357820766242e+06  5.3391769907369092e+06  5.6303340578423711e+06  5.3352163997239554e+06  5.4119205999007821e+06  4.6682367343855137e+06  4.3768724070265638e+06  3.6522660147779500e+06  4.5938609470042242e+06  5.9058077252691220e+06  8.7102699308197256e+06  1.0716665894917870e+07  1.3187230669580040e+07  1.6594622810755877e+07  1.9159414319042675e+07  2.2059679668202527e+07  2.3654310288261108e+07  2.8872414892381448e+07  3.1776674913869232e+07  3.4936597315703139e+07  3.6418115199020177e+07  3.9831022707720235e+07  4.2514411727850579e+07  4.4102696832501121e+07  4.7968455648528881e+07  4.9977532218580298e+07  5.2149928636026390e+07  5.4000556285810255e+07  5.5366755209592119e+07  5.7880185556531072e+07  5.9198887472925872e+07  6.0645564377375372e+07  6.2043153765329748e+07  6.3063907585674457e+07  6.3800986034496821e+07  6.4246256996875502e+07  6.5623808657498531e+07  6.5887982620073870e+07  6.6300091233180568e+07  6.6548808050518215e+07  6.6737338416170329e+07  6.6226857954690732e+07  6.5978554220999323e+07  6.6055846293812253e+07  6.5505053645679921e+07  6.4824335714979827e+07  6.3918623826699793e+07  6.2988977905176312e+07  6.1684350828750558e+07  6.0516556238311678e+07  5.9233836360160343e+07  5.7720687639108583e+07  5.6254606204067796e+07  5.3098079164866544e+07  5.2067424767597318e+07  4.9838821948292620e+07  4.7732111567257121e+07  4.5072799774158195e+07  4.2704485770653166e+07  4.0317672048623651e+07  3.5864160316575065e+07  3.4177340185696356e+07  3.1297453487798274e+07  2.8294931895344041e+07  2.5854868539585114e+07  2.0808713443550691e+07  1.9091824651968304e+07  1.6226639260555632e+07  1.3565853760574453e+07  1.0548214047712103e+07  8.4449204049570467e+06  5.9781173625419177e+06  4.6064843509833766e+06  4.4838588837980079e+06  3.3269874487655796e+06  5.2329984736454207e+06  5.0118079088085033e+06  5.4602579829534711e+06  4.8964709843796194e+06  4.8681674543625470e+06  3.9453712418140895e+06  4.0233661088088499e+06  5.3168860497405246e+07  2.7580174141403913e+08  2.5894514871990901e+08  6.2541070519735105e+07  6.1001457886644743e+07  4.6197245462771766e+07  2.6949569557022721e+08  6.5146022623918667e+07  8.3700385469992936e+07  8.3720787478623912e+07  2.9673462001604360e+08  3.1060433870925838e+08  2.5911394898066679e+08  4.0036466042280018e+07  4.3256213627748810e+07  4.3865944586455941e+07  3.1985940485133693e+07  1.4193083623791704e+08  1.4252959910262671e+08  3.5007704516062617e+08  2.3715687015138950e+07  3.7970228089847159e+08  2.6388704861633086e+08  2.0889875861647207e+07  2.1591647737732187e+07  1.8576373458503015e+07  2.1718840805216879e+08  2.1687271139879176e+08  4.4213450268210614e+08  1.1053113454177756e+07  4.9915024017045313e+08  9.9607371318313554e+06  9.3854370971263368e+06  5.6039713636729874e+07  9.4039535866440088e+06  3.1176686982806319e+08  3.1169987791189098e+08  5.8473491997737026e+08  4.9261365934699010e+06  7.0958053144250762e+08  4.9514729738814263e+06  5.1125479867769480e+06  5.0504463664614512e+06  4.6488346831542403e+08  4.2040620107663220e+08  1.0967208854005505e+08  6.1227001016095132e+07  6.2068068202157713e+07  1.0918543076662505e+08  6.4547490812592998e+07  6.4608876855140090e+07  5.7774093683435813e+07  2.8596501533078295e+08  2.6329367520677429e+08  4.6453155652587838e+07  2.5781717741878262e+08  2.7850590910639679e+08  3.0978505660740416e+07  3.3603626359530592e+08  3.9237557598856673e+07  3.1763467495842552e+08  8.0317081245760655e+08  4.7388582870265525e+06  1.0215038587924072e+09  4.6225477148102531e+06  1.2037924969864419e+09  4.5814166366455331e+06  5.5069974454211164e+08  4.8379348730117241e+06  6.5912617317513134e+06  5.3541202333476287e+08  6.4001139011927908e+06  3.8058904028784788e+08  1.4364154446255866e+07  2.9208642630510882e+07  1.4957315119419312e+07  1.8391329480440542e+08  2.5870772472528842e+08  1.8335402722007871e+08  2.5870965422558662e+08  2.8853127205167152e+07  2.5988226728403527e+08  5.0895153744161397e+07  2.6923780367973590e+08  6.5118747392499216e+07  2.6099573680831864e+08  5.8848842160970964e+07  6.0265092942191474e+07  6.3219694005803794e+07  2.8632821288290155e+08  2.9774961651738876e+08  2.6010958341355581e+07  1.7418854371949315e+07  3.7727562487349313e+08  4.1284334400179952e+08  1.3368826257085046e+07  4.9752665850891399e+08  5.8624087656663489e+08  6.6711908092774302e+06  6.7014906383282850e+06  4.5197273803561013e+06  1.4995636172600920e+09  4.8376173413024747e+08  4.3798765950997714e+06  4.5074555723274490e+06  4.8866558926331377e+08  4.0990569619515342e+08  1.3119482000868011e+08  1.9766452868984732e+08  1.2486337611502741e+08  6.6106064464725897e+07  1.8057937793875718e+08  5.0723996866653278e+07  2.1091002026986197e+08  8.2230507342474505e+07  2.1024193788599417e+08  1.1415295753314516e+08  2.0329751032913184e+08  1.2491190529615630e+08  1.9442658322516462e+08  1.2664938439237672e+08  1.8488134015671906e+08  1.2599626116524665e+08  1.7324753077478418e+08  1.2245516341989443e+08  1.6137261534813812e+08  1.1783939907163127e+08  1.5182253539059746e+08  1.1296231008365500e+08  1.4195712450152919e+08  1.0716524627545241e+08  1.3221835691098665e+08  1.0145900112591903e+08  1.2436300082650246e+08  9.6267485087966651e+07  1.1688306668192060e+08  9.1072672998280108e+07  1.0929717881193635e+08  8.5904561516314134e+07  1.0284024573465697e+08  8.1265103286084607e+07  9.6842048806070402e+07  7.6734394855805233e+07  9.0886342828036323e+07  7.2533667755392924e+07  8.5765612444633678e+07  6.8643092904574588e+07  8.1040055274193987e+07  6.4968451027677812e+07  7.6541703007819086e+07  6.1562752235001780e+07  7.2390483432409391e+07  5.8339357400458306e+07  6.8379494414615527e+07  5.5297322331076123e+07  6.4884913410314478e+07  5.2471668413673341e+07  6.1601360788739800e+07  4.9855343134357803e+07  5.8439116222151741e+07  4.7348811514272198e+07  5.5400713974465899e+07  4.4991514701950580e+07  5.2685716834430389e+07  4.2688066713435814e+07  4.9979221563955680e+07  4.0514802190163024e+07  4.7351670810470715e+07  3.3963726955754846e+07  3.8418200589420795e+07  4.4768552395817123e+07  3.6343283673240378e+07  4.2325729095775984e+07  3.4370133267179668e+07  4.0054951891116887e+07  3.2426402315565716e+07  3.7781850838649295e+07  3.0497308233712714e+07  3.5523416508223929e+07  2.8594124592734206e+07  3.3305705362947293e+07  2.4191464199214425e+07  2.6683650545667164e+07  3.1101504919649798e+07  2.4799107150075387e+07  2.9046499638242953e+07  2.2938135893011097e+07  2.6739249657308988e+07  2.1028960320842575e+07  2.4537504301129721e+07  4.3642201521486603e+07  1.9161389772401575e+07  2.2345749360813383e+07  1.7335159876191873e+07  2.0139951423787087e+07  1.6430723294613106e+07  1.5526735279816955e+07  1.8037375058637522e+07  1.3854976988257593e+07  1.6057210462311752e+07  1.2376741623411879e+07  1.4084090858581960e+07  1.8463759398213662e+07  1.6172791832132304e+07  1.2436539888269491e+07  1.4117169765787464e+07  1.8536413221325286e+07  1.6131467435611755e+07  1.2419033737046160e+07  1.3982113153566554e+07  1.8372553505794700e+07  1.5750409804446474e+07  1.2342292794303594e+07  1.3683460464325057e+07  1.7671507031909477e+07  1.5271030088426720e+07  1.2310506837410888e+07  1.3383143056480840e+07  1.6847421608061492e+07  1.4647795567786532e+07  1.2497931203996409e+07  1.3279624703737171e+07  1.5919862843878251e+07  1.4158093490640327e+07  1.3183635225162052e+07  1.3667409590394804e+07  1.5091290964820243e+07  1.4217931795640262e+07  1.4588726647576338e+07  1.4841510390136695e+07  1.4823477393945415e+07  1.5117156752927681e+07  1.6816479989148743e+07  1.7007762094690971e+07  1.5347920290413296e+07  1.7222928673716091e+07  1.9791025336271767e+07  2.0019753955014870e+07  1.7428203098326720e+07  2.0212844080934156e+07  2.3481713065462802e+07  2.3869926351701997e+07  2.0435389764667381e+07  2.7178570997090358e+07  2.7671820584789641e+07  3.0985694302958496e+07  3.1615922477134742e+07  3.4736013732509479e+07  3.0842980929887258e+07  3.5568311080526352e+07  3.8350398032616913e+07  3.7425968103519872e+07  4.0692262112355024e+07  5.6317847132425636e+07  3.9707178988295496e+07  4.1747593195130885e+07  4.3733772914932236e+07  4.4854772334075123e+07  4.6452564729015619e+07  4.3303360290103994e+07  4.7664174354577802e+07  4.8874205032851465e+07  5.0112412971757114e+07  5.0912790559654973e+07  4.9703407168353833e+07  5.1348411760701112e+07  1.1263754214727815e+07  4.8911972926777892e+07  5.0186817253569968e+07  5.1406320829477504e+07  5.0215865444757618e+07  5.4153182769496366e+07  5.1463270600660346e+07  5.0345153089838013e+07  5.2759120343010247e+07  5.1613067182480648e+07  6.8818553123083830e+07  5.1286245879011333e+07  5.4138043852524474e+07  5.3062044015437365e+07  5.0235007878790155e+07  6.6888773804011241e+07  5.0849392835767150e+07  5.1848341377761677e+07  5.5609121673683912e+07  5.4571516790334031e+07  4.9867550807630122e+07  5.1094567582000084e+07  5.2013058929641344e+07  5.7135540571826220e+07  5.6170383541103840e+07  5.0958621890247300e+07  5.1779014918026939e+07  5.3035013879786626e+07  5.4697551202730827e+07  5.0932775078306481e+07  5.2623187067764580e+07  4.8232952566786319e+07  4.9930841412272245e+07  4.4889421964142136e+07  4.6560826491800927e+07  4.0859235376124173e+07  4.2440913355102822e+07  3.6186364309443451e+07  3.7622532829330407e+07  3.0993412085048031e+07  3.2207756625158235e+07  2.5713456621125069e+07  2.6628953188579556e+07  2.1600820411049634e+07  2.2151671973483920e+07  2.1522054732265159e+07  2.1899784758432392e+07  2.7294440166697718e+07  2.8021026715430681e+07  2.6475806453236349e+07  3.6277434296120279e+07  3.4742672853264198e+07  4.6777805663644657e+07  4.4477485579294898e+07  5.7885192874760307e+07  5.4841077061672524e+07  6.9105548494794622e+07  6.5419535444440216e+07  5.0438157603356600e+07  5.1148821333863981e+07  2.2754244422016263e+07  5.1766261309682406e+07  5.8721414679186106e+07  8.2911168691047221e+07  8.0249238369046211e+07  7.5890013181226298e+07  7.3224600107603878e+07  4.9526511265596032e+07  5.0102820409105584e+07  9.1113589458655611e+07  8.6155137782885641e+07  4.8914370949969143e+07  4.8237456852879584e+07  4.8684153568328477e+07  8.0457274668592498e+07  1.0161537047477062e+08  9.6141914899375468e+07  4.6573417540201262e+07  4.6852361551667228e+07  1.1170620101365347e+08  1.0578152834166476e+08  9.1077040721066028e+07  1.0028890743593526e+08  1.1503857444640653e+08  1.0916528735507290e+08  9.5144413997525752e+07  1.0366216308322190e+08  1.1783523083603793e+08  1.1203574026338668e+08  9.8536530353012607e+07  1.0645603741035330e+08  1.1993455427608459e+08  1.1423895661983687e+08  1.0132895922077540e+08  1.0876635129540209e+08  1.2165297380251621e+08  1.1591523643161367e+08  1.0358625313902760e+08  1.1056526628106980e+08  1.2303262542453054e+08  1.1752128408579041e+08  1.0545751862243460e+08  1.1208294637602136e+08  1.2427129736924016e+08  1.1870453889800870e+08  1.0690817700518301e+08  1.1320111309641546e+08  1.2499552561229581e+08  1.1945319659602338e+08  1.0804159426485386e+08  1.1397542700468801e+08  1.2557086264502481e+08  1.2016832143564291e+08  1.0882107575651763e+08  1.1456838888445644e+08  1.2599207657689829e+08  1.2047699295347124e+08  1.0930234978543463e+08  1.1490255043019928e+08  1.2609343396852228e+08  1.2049922000130354e+08  4.4554044085432038e+07  4.4685870600682668e+07  4.7109345582788900e+07  1.3180666773894480e+08  1.2612387529485403e+08  1.0470602983922052e+08  4.9214780765357889e+07  4.8920251177995168e+07  4.8218660222240500e+07  4.8005061382119432e+07  4.7275608842764981e+07  4.7133812957103238e+07  4.6405560454620078e+07  4.6322865692250699e+07  4.5593339390119538e+07  4.5589886121628202e+07  4.4855683638245448e+07  4.6064993700603820e+07  4.4948943226235397e+07  4.4215418726991653e+07  4.4417487563437410e+07  4.3688082478150323e+07  4.3265585122400135e+07  4.2750618892437264e+07  4.2097507401657052e+07  4.1628301036012821e+07  4.2398634368429631e+07  4.1303233358736075e+07  4.0327899028032698e+07  4.0052965575212933e+07  4.1128232998866417e+07  3.9924435478904009e+07  3.8654643385250539e+07  3.8584125489414729e+07  3.9940231420261897e+07  3.8685955501848847e+07  3.7133422304920688e+07  3.7285565031962991e+07  3.8899883840501562e+07  3.7564535460032754e+07  3.5828596241017014e+07  3.6202021870480001e+07  3.8018298383828647e+07  3.6715150215063125e+07  3.4783136244023427e+07  3.5381268337338425e+07  3.7362718058043666e+07  3.6098113792301297e+07  3.4031445782505475e+07  3.4833977199923895e+07  3.6922889634252228e+07  3.5738284870224036e+07  3.3592243902874909e+07  3.4579032829882830e+07  3.6714043527099200e+07  3.5674383395575501e+07  1.1812151456998877e+08  3.3480037401797030e+07  3.4618899672416285e+07  3.6769214056207366e+07  3.5810734096912481e+07  3.3697523468394063e+07  3.4979479631187223e+07  3.7020809560959406e+07  3.6271087899974860e+07  3.4242927337628826e+07  3.5625556133020736e+07  3.3623924486357607e+07  3.5102096722195990e+07  3.3131935016097032e+07  3.4709997687866762e+07  3.6526409509025052e+07  3.6237202863423482e+07  3.4451830594530515e+07  3.6072677669360064e+07  3.4335334613247082e+07  3.6048948579631664e+07  3.4349019121581234e+07  3.6165436614939004e+07  3.7673387558039851e+07  3.7873985664891802e+07  3.6396208409766249e+07  3.8202930313246109e+07  3.6754736813999288e+07  3.8648724126541100e+07  3.7236939390485577e+07  3.9207223640901163e+07  3.7813363909502864e+07  3.9865889161470488e+07  4.1007754017221540e+07  4.1734133295377895e+07  4.0612808813680351e+07  4.2545390921101786e+07  4.1438717814921290e+07  4.3433081504917696e+07  4.4250933394202664e+07  4.5182077552044049e+07  4.4389479384286016e+07  4.6177070450808652e+07  4.5406169428247653e+07  4.7227058468691863e+07  4.6478652879536487e+07  4.8325618541956283e+07  4.8735635133133717e+07  4.9839465916959360e+07  4.9469328086361401e+07  5.0978089623351723e+07  5.0656063474366106e+07  5.2152690883698642e+07  5.1880507613848381e+07  5.2106972455788933e+07  5.3239080018245913e+07  5.2835125209663846e+07  5.3902754407922342e+07  5.3145540551646695e+07  5.4121091593045853e+07  5.3043162745200463e+07  5.3919760653566249e+07  5.5116033696633443e+07  5.2505453632726789e+07  5.1746192015604205e+07  5.0915080253577091e+07  5.3270866408589609e+07  5.0259690401048914e+07  4.9169925537569426e+07  3.9179383821990699e+07  4.8615554516357407e+07  4.7282022080995224e+07  4.6830693351447098e+07  4.5274172436292648e+07  4.5585997564936340e+07  4.2184329641533889e+07  4.2170349255245522e+07  4.2133904469750851e+07  1.3758303390294746e+08  1.3168304192921501e+08  1.0404005403257264e+08  3.9517638724939018e+07  4.3375094555328675e+07  4.3543559747024640e+07  4.4923691474240005e+07  4.2336908832483746e+07  3.5606983175618984e+07  1.4343174939234048e+08  1.3763266280103499e+08  1.2597732282382511e+08  1.3150346303885585e+08  1.4321162093986657e+08  1.3721229765333861e+08  1.2014836808765401e+08  3.9351583182963900e+07  4.6355188361117326e+07  4.9993558805874057e+07  5.1264299893688336e+07  4.8963187409432851e+07  5.0256140412086457e+07  4.7526174238061339e+07  4.8832273046428539e+07  4.5650910805155195e+07  4.6942961462258361e+07  5.0200872552081697e+07  4.8313189902151130e+07  5.1635680163963363e+07  4.9761728101896875e+07  5.3165625164291941e+07  5.1302212834899187e+07  5.4755560678713605e+07  5.2946491683250479e+07  5.6441656352140874e+07  5.4695855857117355e+07  5.8238629504853383e+07  5.6596841696968056e+07  6.0159757500069849e+07  5.8628442359642722e+07  6.226593494