<?xml version="1.0"?>
<VTKFile type="UnstructuredGrid"  version="0.1"  >
<UnstructuredGrid>
<Piece  NumberOfPoints="4907" NumberOfCells="23037">
<Points>
<DataArray  type="Float64"  NumberOfComponents="3"  format="ascii">0 0 0  0 0 0.2  0 1 0.2  0 1 0  1 0 0  1 0 0.2  1 1 0.2  1 1 0  0 0 1.2  0 1 1.2  1 0 1.2  1 1 1.2  0 0 0.04174546103309369  0 0 0.0816025948422595  0 0 0.1210831716649333  0 0 0.1605415858324667  0 0.04761904761904758 0.2  0 0.09523809523809519 0.2  0 0.1428571428571428 0.2  0 0.1904761904761904 0.2  0 0.2380952380952379 0.2  0 0.2857142857142854 0.2  0 0.3333333333333329 0.2  0 0.3809523809523804 0.2  0 0.4285714285714278 0.2  0 0.4761904761904753 0.2  0 0.5238095238095228 0.2  0 0.5714285714285703 0.2  0 0.6190476190476177 0.2  0 0.6666666666666653 0.2  0 0.7142857142857126 0.2  0 0.7619047619047602 0.2  0 0.809523809523808 0.2  0 0.857142857142856 0.2  0 0.9047619047619041 0.2  0 0.952380952380952 0.2  0 1 0.04174120080615058  0 1 0.08159825427264648  0 1 0.1210800795676872  0 1 0.1605400397838436  0 0.05263185666989595 0  0 0.1052634292045066 0  0 0.1578949753019255 0  0 0.2105265606867653 0  0 0.2631580972815438 0  0 0.3157896914200624 0  0 0.3684212218414297 0  0 0.4210528211899031 0  0 0.4736843485186084 0  0 0.5263159496365281 0  0 0.5789474769632287 0  0 0.631579076316224 0  0 0.6842106067321163 0  0 0.7368422008778577 0  0 0.7894737374642301 0  0 0.8421053228608164 0  0 0.8947368689458203 0  0 0.9473684414967007 0  1 0 0.04174120080615058  1 0 0.08159825427264648  1 0 0.1210800795676872  1 0 0.1605400397838436  1 0.04761904761904758 0.2  1 0.09523809523809519 0.2  1 0.1428571428571428 0.2  1 0.1904761904761904 0.2  1 0.2380952380952379 0.2  1 0.2857142857142854 0.2  1 0.3333333333333329 0.2  1 0.3809523809523804 0.2  1 0.4285714285714278 0.2  1 0.4761904761904753 0.2  1 0.5238095238095228 0.2  1 0.5714285714285703 0.2  1 0.6190476190476177 0.2  1 0.6666666666666653 0.2  1 0.7142857142857126 0.2  1 0.7619047619047602 0.2  1 0.809523809523808 0.2  1 0.857142857142856 0.2  1 0.9047619047619041 0.2  1 0.952380952380952 0.2  1 1 0.0417369476568315  1 1 0.08159392147315059  1 1 0.1210769942716541  1 1 0.160538497135827  1 0.05263185629002039 0  1 0.1052634288334169 0  1 0.1578949749757635 0  1 0.2105265603517968 0  1 0.2631580970045133 0  1 0.3157896911222401 0  1 0.3684212216099975 0  1 0.4210528209305459 0  1 0.4736843483298758 0  1 0.526315949417448 0  1 0.5789474768147793 0  1 0.6315790761398384 0  1 0.6842106066221353 0  1 0.7368422007470659 0  1 0.7894737373913995 0  1 0.8421053227791465 0  1 0.8947368689091119 0  1 0.9473684414687341 0  0.05263185666989595 0 0  0.1052634292045066 0 0  0.1578949753019255 0 0  0.2105265606867653 0 0  0.2631580972815438 0 0  0.3157896914200624 0 0  0.3684212218414297 0 0  0.4210528211899031 0 0  0.4736843485186084 0 0  0.5263159496365281 0 0  0.5789474769632287 0 0  0.631579076316224 0 0  0.6842106067321163 0 0  0.7368422008778577 0 0  0.7894737374642301 0 0  0.8421053228608164 0 0  0.8947368689458203 0 0  0.9473684414967007 0 0  0.04761904761904758 0 0.2  0.09523809523809519 0 0.2  0.1428571428571428 0 0.2  0.1904761904761904 0 0.2  0.2380952380952379 0 0.2  0.2857142857142854 0 0.2  0.3333333333333329 0 0.2  0.3809523809523804 0 0.2  0.4285714285714278 0 0.2  0.4761904761904753 0 0.2  0.5238095238095228 0 0.2  0.5714285714285703 0 0.2  0.6190476190476177 0 0.2  0.6666666666666653 0 0.2  0.7142857142857126 0 0.2  0.7619047619047602 0 0.2  0.809523809523808 0 0.2  0.857142857142856 0 0.2  0.9047619047619041 0 0.2  0.952380952380952 0 0.2  0.05263185629002039 1 0  0.1052634288334169 1 0  0.1578949749757635 1 0  0.2105265603517968 1 0  0.2631580970045133 1 0  0.3157896911222401 1 0  0.3684212216099975 1 0  0.4210528209305459 1 0  0.4736843483298758 1 0  0.526315949417448 1 0  0.5789474768147793 1 0  0.6315790761398384 1 0  0.6842106066221353 1 0  0.7368422007470659 1 0  0.7894737373913995 1 0  0.8421053227791465 1 0  0.8947368689091119 1 0  0.9473684414687341 1 0  0.04761904761904758 1 0.2  0.09523809523809519 1 0.2  0.1428571428571428 1 0.2  0.1904761904761904 1 0.2  0.2380952380952379 1 0.2  0.2857142857142854 1 0.2  0.3333333333333329 1 0.2  0.3809523809523804 1 0.2  0.4285714285714278 1 0.2  0.4761904761904753 1 0.2  0.5238095238095228 1 0.2  0.5714285714285703 1 0.2  0.6190476190476177 1 0.2  0.6666666666666653 1 0.2  0.7142857142857126 1 0.2  0.7619047619047602 1 0.2  0.809523809523808 1 0.2  0.857142857142856 1 0.2  0.9047619047619041 1 0.2  0.952380952380952 1 0.2  0 0 0.2461970796399709  0 0 0.2923941592799418  0 0 0.3387243945289861  0 0 0.3863481971058656  0 0 0.441574291840575  0 0 0.5167179017297259  0 0 0.6080084217625917  0 0 0.7000607423740808  0 0 0.7921130629855704  0 0 0.8833936912693379  0 0 0.958474687985821  0 0 1.013662897466742  0 0 1.061277468163518  0 0 1.107605840720058  0 0 1.153802920360029  0 0.04620089013637435 1.2  0 0.09240178027274873 1.2  0 0.1387340666778921 1.2  0 0.1863534125777873 1.2  0 0.2415515669041398 1.2  0 0.3166497522562728 1.2  0 0.4079400865917501 1.2  0 0.4999999999999992 1.2  0 0.5920599134082489 1.2  0 0.6833502477437277 1.2  0 0.7584484330958612 1.2  0 0.8136465874222131 1.2  0 0.8612659333221084 1.2  0 0.9075982197272515 1.2  0 0.9537991098636257 1.2  0 1 0.2461989855902354  0 1 0.2923979711804708  0 1 0.338729230651963  0 1 0.3863508010351772  0 1 0.4415629154477985  0 1 0.5166838010142994  0 1 0.6079742415867959  0 1 0.7000303599955955  0 1 0.7920864784043957  0 1 0.8833719615023048  0 1 0.9584615557035236  0 1 1.013654739687037  0 1 1.061271698617583  0 1 1.107602028819529  0 1 1.153801014409765  1 0 0.2461989855902354  1 0 0.2923979711804708  1 0 0.338729230651963  1 0 0.3863508010351772  1 0 0.4415629154477985  1 0 0.5166838010142994  1 0 0.6079742415867959  1 0 0.7000303599955955  1 0 0.7920864784043957  1 0 0.8833719615023048  1 0 0.9584615557035236  1 0 1.013654739687037  1 0 1.061271698617583  1 0 1.107602028819529  1 0 1.153801014409765  1 0.04620089013637435 1.2  1 0.09240178027274873 1.2  1 0.1387340666778921 1.2  1 0.1863534125777873 1.2  1 0.2415515669041398 1.2  1 0.3166497522562728 1.2  1 0.4079400865917501 1.2  1 0.4999999999999992 1.2  1 0.5920599134082489 1.2  1 0.6833502477437277 1.2  1 0.7584484330958612 1.2  1 0.8136465874222131 1.2  1 0.8612659333221084 1.2  1 0.9075982197272515 1.2  1 0.9537991098636257 1.2  1 1 0.2462008901363744  1 1 0.2924017802727488  1 1 0.3387340666778921  1 1 0.3863534125777873  1 1 0.4415515669041398  1 1 0.5166497522562729  1 1 0.6079400865917501  1 1 0.6999999999999993  1 1 0.7920599134082489  1 1 0.8833502477437276  1 1 0.9584484330958611  1 1 1.013646587422213  1 1 1.061265933322108  1 1 1.107598219727252  1 1 1.153799109863626  0.04620089013637435 0 1.2  0.09240178027274873 0 1.2  0.1387340666778921 0 1.2  0.1863534125777873 0 1.2  0.2415515669041398 0 1.2  0.3166497522562728 0 1.2  0.4079400865917501 0 1.2  0.4999999999999992 0 1.2  0.5920599134082489 0 1.2  0.6833502477437277 0 1.2  0.7584484330958612 0 1.2  0.8136465874222131 0 1.2  0.8612659333221084 0 1.2  0.9075982197272515 0 1.2  0.9537991098636257 0 1.2  0.04620089013637435 1 1.2  0.09240178027274873 1 1.2  0.1387340666778921 1 1.2  0.1863534125777873 1 1.2  0.2415515669041398 1 1.2  0.3166497522562728 1 1.2  0.4079400865917501 1 1.2  0.4999999999999992 1 1.2  0.5920599134082489 1 1.2  0.6833502477437277 1 1.2  0.7584484330958612 1 1.2  0.8136465874222131 1 1.2  0.8612659333221084 1 1.2  0.9075982197272515 1 1.2  0.9537991098636257 1 1.2  0 0.9174203787135049 0.1010896692581779  0 0.08257690981217558 0.1010920585602483  0 0.5003347012163113 0.09565480466245233  0 0.3579071766958429 0.09631703302957953  0 0.6420928291374743 0.09631703607735745  0 0.7797243043371342 0.09849240320516567  0 0.220275227758233 0.09849233697481148  0 0.4268464014745006 0.1284871159603801  0 0.5731535943684238 0.1284870983365682  0 0.2841265102942263 0.1238838186526207  0 0.7158734919473514 0.1238838322173073  0 0.1554683790886158 0.1339575345114501  0 0.8445307903512863 0.1339581342305768  0 0.9444621098867192 0.1359180582078391  0 0.05553720246298189 0.1359202242337109  0 0.9401614251164596 0.06279517424423481  0 0.0598351779806777 0.0627979087993995  0 0.8457902645368612 0.0669343049214856  0 0.1542034570137356 0.0669338751208392  0 0.5529180418081218 0.06043032485893841  0 0.4479426682054376 0.06043034702832769  0 0.3050139349097219 0.0634147356768288  0 0.6949860480610121 0.06341476675675931  0 0.6103041139833327 0.05457483750491998  0 0.3898393980382283 0.05457483760355085  0 0.2483167591694456 0.05531626873508918  0 0.7516831989138379 0.05531633004224915  0 0.5000243949350056 0.1528906184260129  0 0.356905663777464 0.1538031869780879  0 0.6430943380144255 0.153803183295887  0 0.7936079707701743 0.1495044843464697  0 0.2063917227884478 0.1495040620561747  0 0.5014334863978778 0.04515118315392459  0 0.8868510505303583 0.151854759346357  0 0.1131479584394105 0.1518554113123985  0 0.1067710026743579 0.05483251004207659  0 0.8932234602499247 0.05483140958899774  0 0.9630801830434279 0.09402516051499732  0 0.03691850472715916 0.09402833100637134  0 0.1864190906944772 0.05047276525697718  0 0.8135787394375114 0.05047347537625282  0 0.4052969353708534 0.1624138976780648  0 0.5947030640667258 0.162413889615952  0 0.4520244509474903 0.1621610767324497  0 0.547977665464181 0.1621610771326269  0 0.2619047619047616 0.1623800002027558  0 0.7380952380952355 0.1623800020535282  0 0.6904761904761891 0.1624095023381347  0 0.3095238095238091 0.1624095028318688  0 0.347394284581057 0.04286132126199183  0 0.6526345348460318 0.04286132806780735  0 0.590431341562359 0.09429418562442766  0 0.4097360281331379 0.09429420199772316  0 0.2555360372748897 0.09625257533441421  0 0.7444639791616308 0.09625262361767567  0 0.469138862302742 0.1256691554545492  0 0.5308611349892361 0.1256691586025259  0 0.3257362561065827 0.1258537959103161  0 0.6742637516126684 0.1258537964090386  0 0.1763614295507573 0.1000288143999907  0 0.82363627848580
[...]
<PointData  Tensors="Sigma [Pa]"> 
<DataArray  type="Float64"  Name="Sigma [Pa]"  NumberOfComponents="9" format="ascii">3.2121056319007355e+08 -1.8287559186064845e+05 5.0381196669058074e+04 -1.8287559186064845e+05 3.2116213581840897e+08 4.0753095378270264e+04 5.0381196669058081e+04 4.0753095378270293e+04 3.2103092300692666e+08  2.4680178978469679e+08 6.2717346154771447e+04 -2.4500756177894189e+05 6.2717346154771447e+04 2.4673719177036932e+08 -3.2445219911840255e+05 -2.4500756177894189e+05 -3.2445219911840255e+05 2.4590303674452612e+08  2.4775240841616648e+08 3.3823837833820529e+04 -3.3409053776256629e+05 3.3823837833820529e+04 2.4780868088762769e+08 3.2008441227884259e+05 -3.3409053776256629e+05 3.2008441227884265e+05 2.4721764288756108e+08  3.2128534834882200e+08 2.0129091418362013e+05 6.3774459018377500e+04 2.0129091418362013e+05 3.2123855807529622e+08 -4.8149855744476044e+04 6.3774459018377500e+04 -4.8149855744476037e+04 3.2116595014098883e+08  3.2117741607519835e+08 1.8710463654035210e+05 -1.9752770643030592e+04 1.8710463654035210e+05 3.2117138583374643e+08 4.2064008064948379e+04 -1.9752770643030603e+04 4.2064008064948379e+04 3.2103661402061558e+08  2.4783980364645693e+08 3.0886328231697906e+04 3.8152800570385391e+05 3.0886328231697906e+04 2.4784813679156980e+08 -3.6106517518168502e+05 3.8152800570385403e+05 -3.6106517518168502e+05 2.4723404548105019e+08  2.4542301507300726e+08 2.1469352741437237e+05 3.1108614000766090e+05 2.1469352741437237e+05 2.4532821687650490e+08 2.5989721213889407e+05 3.1108614000766090e+05 2.5989721213889407e+05 2.4427788969796461e+08  3.2148688017120284e+08 -2.2867115332004052e+05 -4.0176125871727796e+04 -2.2867115332004052e+05 3.2146088092568964e+08 -1.2169201966992330e+04 -4.0176125871727811e+04 -1.2169201966992343e+04 3.2136892536849606e+08  1.3175620498511218e+08 -3.2923613078603603e+07 -2.0566178052827507e+07 -3.2923613078603603e+07 1.8159616587190568e+07 3.3160790526656318e+07 -2.0566178052827507e+07 3.3160790526656318e+07 1.3224387192553787e+08  1.3354332924016216e+08 3.5235553445690133e+07 -2.0220714385025240e+07 3.5235553445690133e+07 1.9980628314963996e+07 -3.4260900719803713e+07 -2.0220714385025240e+07 -3.4260900719803713e+07 1.3270277588976297e+08  1.2982827654208712e+08 3.5018220882003926e+07 1.9733539549010456e+07 3.5018220882003926e+07 1.5537709290113168e+07 3.4970893999041520e+07 1.9733539549010456e+07 3.4970893999041520e+07 1.3018169508947581e+08  1.3167408178643948e+08 -3.3973294581583098e+07 2.0049731588943277e+07 -3.3973294581583098e+07 1.9877329892417982e+07 -3.5364726143595420e+07 2.0049731588943277e+07 -3.5364726143595420e+07 1.3362836785715328e+08  3.2368747152079850e+08 3.0633815146459201e+04 -7.4116486785048037e+04 3.0633815146459201e+04 3.2361211484359062e+08 -9.3269234011752444e+04 -7.4116486785048037e+04 -9.3269234011752444e+04 3.2309887258331144e+08  3.2163981744016731e+08 1.0204331507743974e+05 3.7806910925907025e+04 1.0204331507743974e+05 3.2147760593748468e+08 -4.0078757357695125e+04 3.7806910925907046e+04 -4.0078757357695125e+04 3.2079786323206550e+08  3.2702321464881778e+08 6.2658205723970306e+04 5.6815932147904250e+03 6.2658205723970306e+04 3.2697784937689388e+08 6.6826845459329241e+04 5.6815932147904050e+03 6.6826845459329212e+04 3.2633295846088606e+08  3.1732070010975605e+08 3.5548571341950085e+05 -2.8019288663923489e+04 3.5548571341950085e+05 3.1726727144226092e+08 5.2690870003677221e+04 -2.8019288663923486e+04 5.2690870003677235e+04 3.1561407393919563e+08  1.9530822035434780e+08 7.2528941757896118e+03 -1.0182634406695009e+06 7.2528941757896137e+03 1.9533914405858049e+08 -1.4227635783831766e+05 -1.0182634406695007e+06 -1.4227635783831766e+05 1.9504364238642102e+08  2.0923304141863865e+08 -1.5641190248848882e+05 -4.7298059360761591e+05 -1.5641190248848882e+05 2.0921961795987910e+08 -3.0792563547177019e+05 -4.7298059360761626e+05 -3.0792563547177019e+05 2.0897713868711314e+08  2.0173772215464652e+08 4.6409895918577407e+04 -9.9070640403981856e+05 4.6409895918577422e+04 2.0170709548411840e+08 -2.4557854275493501e+05 -9.9070640403981856e+05 -2.4557854275493501e+05 2.0132357489971250e+08  2.2586916819637957e+08 -5.8181953626334238e+04 -4.9968466339824384e+05 -5.8181953626334223e+04 2.2534411361973333e+08 -1.8198741169354282e+05 -4.9968466339824389e+05 -1.8198741169354279e+05 2.2456914687876508e+08  2.4560735278768677e+08 -1.1535422585961980e+04 -4.2762343978599651e+05 -1.1535422585961971e+04 2.4545179366315496e+08 -1.2653138393646764e+05 -4.2762343978599645e+05 -1.2653138393646764e+05 2.4420110250764456e+08  1.9649008508823732e+08 -6.1602813371936296e+04 -4.2603175407974614e+05 -6.1602813371936296e+04 1.9655280054179925e+08 -1.3270474301663967e+05 -4.2603175407974597e+05 -1.3270474301663967e+05 1.9622374711798608e+08  2.3882553502058980e+08 -5.4724018680368958e+04 -4.5177003457681165e+05 -5.4724018680368958e+04 2.3884362198662919e+08 -1.6638524182868001e+05 -4.5177003457681165e+05 -1.6638524182868001e+05 2.3790437589358717e+08  2.3984637054371578e+08 7.3055200364415199e+04 -8.9189397687237163e+05 7.3055200364415170e+04 2.3981591254197612e+08 -1.1287707087777722e+05 -8.9189397687237174e+05 -1.1287707087777722e+05 2.3864871728282267e+08  2.4478539719105372e+08 -2.0750684262866012e+05 -5.6795184071349516e+05 -2.0750684262866012e+05 2.4577965109382969e+08 -1.4208908468488021e+03 -5.6795184071349516e+05 -1.4208908468487896e+03 2.4464040992287567e+08  1.9774549079414523e+08 -1.3298161480592324e+02 -8.7718355650291650e+05 -1.3298161480593043e+02 1.9781403708958483e+08 -8.8411741203124606e+04 -8.7718355650291650e+05 -8.8411741203124606e+04 1.9749785765779427e+08  1.9233182764331332e+08 4.0033671484836428e+04 -4.3403092109348642e+05 4.0033671484836428e+04 1.9224499044059762e+08 -9.6841916312723642e+03 -4.3403092109348625e+05 -9.6841916312723533e+03 1.9184853441128600e+08  1.9675381557615578e+08 -4.5370339228828590e+04 -9.7072341762964625e+05 -4.5370339228828590e+04 1.9677123218849084e+08 1.1552578363625339e+05 -9.7072341762964625e+05 1.1552578363625341e+05 1.9616226326931590e+08  2.3839845081777161e+08 -5.8537096333700829e+04 -6.1725181762970367e+05 -5.8537096333700829e+04 2.3851108433667094e+08 2.6413424622071307e+05 -6.1725181762970367e+05 2.6413424622071307e+05 2.3730197864799574e+08  2.4920125056976396e+08 1.0342020983557949e+05 -6.4595031732772989e+05 1.0342020983557949e+05 2.4922746641054216e+08 -3.2809384265362431e+04 -6.4595031732772989e+05 -3.2809384265362431e+04 2.4786609060854214e+08  1.9316738436438280e+08 6.5322765416082675e+03 -7.3209618405611685e+05 6.5322765416082766e+03 1.9333013582618499e+08 2.1187674911348778e+05 -7.3209618405611685e+05 2.1187674911348775e+05 1.9305804298666984e+08  2.3995174479872513e+08 1.7618770125307035e+05 -8.8925516134661331e+05 1.7618770125307035e+05 2.4017255677535829e+08 1.0231082700751896e+05 -8.8925516134661331e+05 1.0231082700751896e+05 2.3918397740713897e+08  2.3278982956021389e+08 1.1914205271840563e+05 -4.0446136441264948e+05 1.1914205271840560e+05 2.3249919539602342e+08 9.1849462916547618e+03 -4.0446136441264948e+05 9.1849462916547491e+03 2.3178683768334195e+08  1.9503340973832139e+08 -1.0016631274460745e+05 -1.0119342717100838e+06 -1.0016631274460744e+05 1.9494486586706594e+08 2.0626488987900337e+05 -1.0119342717100835e+06 2.0626488987900340e+05 1.9466271267041561e+08  2.1804985364561558e+08 1.0985964375563002e+05 -5.3850458448950108e+05 1.0985964375563002e+05 2.1799217205655390e+08 2.3231711748414370e+05 -5.3850458448950120e+05 2.3231711748414364e+05 2.1757421153732988e+08  1.6762807233832416e+08 -6.0685609682377653e+04 -1.0390541312872937e+06 -6.0685609682377653e+04 1.6771267671790567e+08 1.0973174228237127e+05 -1.0390541312872936e+06 1.0973174228237124e+05 1.6779876103003874e+08  3.2366913678373128e+08 -2.9499354164038363e+04 -5.4917216767249032e+04 -2.9499354164038363e+04 3.2358189293392700e+08 1.5731581708028232e+04 -5.4917216767249032e+04 1.5731581708028232e+04 3.2313645649016511e+08  3.2318940195719939e+08 -2.4143802982944617e+05 -5.5640964135443151e+04 -2.4143802982944617e+05 3.2320852650324118e+08 4.3785379757345945e+04 -5.5640964135443151e+04 4.3785379757345945e+04 3.2264203399285424e+08  3.2178690951266396e+08 2.0437134774438106e+05 -2.2143398881658315e+05 2.0437134774438106e+05 3.2159015162046134e+08 1.3924126278610056e+05 -2.2143398881658318e+05 1.3924126278610056e+05 3.2116149795305306e+08  3.2080828243596184e+08 -4.1684407205252966e+05 -8.2572599296992325e+04 -4.1684407205252966e+05 3.2074855204080790e+08 1.3141555949847441e+05 -8.2572599296992266e+04 1.3141555949847438e+05 3.1895240383701271e+08  3.2109683340631187e+08 -4.3168458405717742e+04 -1.6586298308096689e+05 -4.3168458405717734e+04 3.2093348403528142e+08 -4.9795644166586044e+03 -1.6586298308096695e+05 -4.9795644166586180e+03 3.2116472258934957e+08  3.2120864286570007e+08 6.5664132568367771e+04 -1.9881389235334579e+05 6.5664132568367771e+04 3.2126413168121296e+08 1.9753434996860346e+05 -1.9881389235334579e+05 1.9753434996860346e+05 3.2162577230892473e+08  3.2050210464504975e+08 -6.2249003546145534e+04 -2.1625763392859182e+05 -6.2249003546145534e+04 3.2021195860187948e+08 1.0204745184838347e+05 -2.1625763392859182e+05 1.0204745184838347e+05 3.2091636086917585e+08  3.2022481872996563e+08 -2.1638773168938893e+04 -1.9270841720910289e+05 -2.1638773168938897e+04 3.2042902941571695e+08 7.3402458318118268e+04 -1.9270841720910298e+05 7.3402458318118297e+04 3.2047136018598992e+08  3.2136942456099623e+08 3.2114698535681597e+05 2.0495424105319448e+05 3.2114698535681597e+05 3.2056643788652897e+08 7.7139506779253614e+04 2.0495424105319448e+05 7.7139506779253628e+04 3.2149679798979264e+08  3.2076399295697457e+08 1.2495160339725908e+04 -1.7718301622056428e+05 1.2495160339725904e+04 3.2107939271500003e+08 3.3020893851302535e+03 -1.7718301622056428e+05 3.3020893851302617e+03 3.2128765844000351e+08  3.2086653481932276e+08 4.7128728985553964e+04 -1.1613165851475818e+05 4.7128728985553964e+04 3.2116717923524576e+08 6.8648889930960751e+04 -1.1613165851475818e+05 6.8648889930960795e+04 3.2124984967355782e+08  3.2167089340340644e+08 -7.6337859732612313e+04 -1.2954797375597910e+05 -7.6337859732612313e+04 3.2090049214841878e+08 9.0072636193689308e+04 -1.2954797375597908e+05 9.0072636193689323e+04 3.2185598866741002e+08  3.2022030580154204e+08 6.8788008326938734e+03 -1.8950258516836507e+05 6.8788008326938607e+03 3.2070955444463778e+08 -6.9873885482029946e+04 -1.8950258516836507e+05 -6.9873885482029946e+04 3.2073655692724067e+08  3.2065486362028801e+08 2.6810435744617448e+03 -1.4390168471085714e+05 2.6810435744617466e+03 3.2070049920053536e+08 1.5807132552056864e+05 -1.4390168471085717e+05 1.5807132552056864e+05 3.2095327618677729e+08  3.2149089839068073e+08 1.7224326857615322e+03 -1.9006552478769445e+05 1.7224326857615538e+03 3.2097761750379980e+08 -9.9399084680619926e+04 -1.9006552478769448e+05 -9.9399084680619926e+04 3.2150602691590083e+08  3.2042250205125743e+08 1.3442997853224679e+04 -8.0624237482787808e+04 1.3442997853224679e+04 3.2061181266501629e+08 -3.2623981858975625e+04 -8.0624237482787838e+04 -3.2623981858975625e+04 3.2088690816767311e+08  3.2098632773236537e+08 8.3323181372801773e+04 -2.2296214805494045e+05 8.3323181372801773e+04 3.2130589945272857e+08 6.1861118879989714e+04 -2.2296214805494054e+05 6.1861118879989706e+04 3.2145304507720476e+08  3.2094093022583306e+08 -6.3703157189408521e+04 -2.6757629370648292e+05 -6.3703157189408521e+04 3.2055164094705713e+08 3.0977752582214038e+04 -2.6757629370648292e+05 3.0977752582214016e+04 3.2097559294445217e+08  3.1903302420448858e+08 3.2882918626818457e+04 -1.5168523571230227e+05 3.2882918626818457e+04 3.1931307493549681e+08 -2.8214590163736910e+04 -1.5168523571230227e+05 -2.8214590163736902e+04 3.1939483754783618e+08  3.2098278341551930e+08 3.0482952216023194e+04 -2.0849282986996515e+05 3.0482952216023201e+04 3.2067917527123517e+08 -1.4236343335105068e+05 -2.0849282986996518e+05 -1.4236343335105068e+05 3.2123745547692323e+08  3.2131955945739073e+08 -6.9796099062327528e+04 -2.4580157348776847e+05 -6.9796099062327528e+04 3.2142261355178529e+08 -2.0748111129140822e+05 -2.4580157348776847e+05 -2.0748111129140816e+05 3.2169564854861778e+08  3.2117695270763147e+08 1.0974540952382097e+05 -1.6047313515738619e+05 1.0974540952382097e+05 3.2103134055398983e+08 -4.7935058616427821e+04 -1.6047313515738619e+05 -4.7935058616427821e+04 3.2115938010058784e+08  3.2346878404577148e+08 -3.1936037025024772e+04 7.2235567596053050e+04 -3.1936037025024772e+04 3.2345204995628303e+08 -8.6820610363087239e+04 7.2235567596053021e+04 -8.6820610363087239e+04 3.2293874826427311e+08  3.2238271974787980e+08 -1.0919661388003448e+05 4.5375734559817982e+04 -1.0919661388003448e+05 3.2241221283936179e+08 1.0771024393655362e+04 4.5375734559817989e+04 1.0771024393655362e+04 3.2167212195790064e+08  3.2436624063256365e+08 1.6578837582765387e+04 1.2808992722301324e+04 1.6578837582765387e+04 3.2443454587018651e+08 1.4736029741358009e+05 1.2808992722301316e+04 1.4736029741358006e+05 3.2395114176610720e+08  3.1691740422204715e+08 -3.4147659215704800e+05 8.0415283803112514e+04 -3.4147659215704800e+05 3.1678232266236550e+08 5.8101142957685033e+03 8.0415283803112543e+04 5.8101142957685033e+03 3.1507114862054753e+08  1.9087389403642824e+08 -1.7755779849241945e+05 1.0529905644726895e+06 -1.7755779849241945e+05 1.9079186591062587e+08 -7.5221156003717799e+04 1.0529905644726898e+06 -7.5221156003717770e+04 1.9051116238456792e+08  2.1158274558007914e+08 1.2339530444702254e+05 4.6082613447291090e+05 1.2339530444702254e+05 2.1132894937058133e+08 -2.2825725342845573e+05 4.6082613447291090e+05 -2.2825725342845582e+05 2.1087096935783303e+08  1.9735077518002170e+08 1.2512958516325618e+05 9.7885393967064330e+05 1.2512958516325618e+05 1.9733954099357218e+08 -3.0466823066129349e+05 9.7885393967064319e+05 -3.0466823066129355e+05 1.9696004999123022e+08  2.4851995637269592e+08 -7.2667099626124502e+04 5.3532323553902190e+05 -7.2667099626124502e+04 2.4841366982328224e+08 -2.3060744919946017e+04 5.3532323553902213e+05 -2.3060744919946010e+04 2.4749812293117377e+08  2.3945525081577945e+08 3.3421166181879897e+04 4.2293910905648937e+05 3.3421166181879868e+04 2.3912981924039787e+08 -1.7207650094042413e+05 4.2293910905648943e+05 -1.7207650094042413e+05 2.3800669870060283e+08  1.8146229869313744e+08 -1.0840949281793993e+05 5.1757079865931469e+05 -1.0840949281793988e+05 1.8143475507071504e+08 -1.7878632321722762e+05 5.1757079865931452e+05 -1.7878632321722759e+05 1.8094438917218319e+08  2.4315793683953425e+08 1.4230610962175622e+05 5.7728191549735318e+05 1.4230610962175624e+05 2.4326178814791328e+08 -1.4589266752942000e+05 5.7728191549735318e+05 -1.4589266752942002e+05 2.4263447642986220e+08  2.3686633395846066e+08 -7.8064986660706956e+04 9.4057708436640806e+05 -7.8064986660707000e+04 2.3718008065005422e+08 -6.8483676362386279e+04 9.4057708436640806e+05 -6.8483676362386264e+04 2.3631194916773245e+08  2.0897896205936226e+08 4.4219162732396499e+03 8.8805907841746497e+05 4.4219162732396480e+03 2.0910760017850098e+08 -3.7944154559585288e+04 8.8805907841746497e+05 -3.7944154559585280e+04 2.0853833709650385e+08  2.3146541758734286e+08 -2.8465707601758011e+05 5.3760145354145172e+05 -2.8465707601758017e+05 2.3243750468139362e+08 -4.3952178839762077e+04 5.3760145354145172e+05 -4.3952178839762077e+04 2.3164639623401937e+08  1.7918610751576954e+08 -1.2759883040651377e+04 4.2466359195082798e+05 -1.2759883040651355e+04 1.7920277592846307e+08 4.5101573852002359e+04 4.2466359195082815e+05 4.5101573852002344e+04 1.7884970646033362e+08  2.3755977669335255e+08 1.4337157722885115e+03 6.1235967185881711e+05 1.4337157722885195e+03 2.3855681789985880e+08 1.2554761938741300e+05 6.1235967185881711e+05 1.2554761938741301e+05 2.3763665058956128e+08  2.3389055310570434e+08 9.3915608993633417e+04 7.0899893329641281e+05 9.3915608993633417e+04 2.3385711397204542e+08 9.4961907077127253e+04 7.0899893329641304e+05 9.4961907077127253e+04 2.3308372354631037e+08  2.7915206444030023e+08 1.3463451890638698e+05 3.9857479326551122e+05 1.3463451890638698e+05 2.8019981772702450e+08 6.5266417499049792e+04 3.9857479326551122e+05 6.5266417499049785e+04 2.7903280065009916e+08  1.9400233314627081e+08 6.7341110545266216e+04 6.0648188193798927e+05 6.7341110545266216e+04 1.9404808154306781e+08 1.4420112461843246e+05 6.0648188193798915e+05 1.4420112461843246e+05 1.9377886404611203e+08  2.3610488386646089e+08 -1.3798414329272867e+05 1.0032380775340918e+06 -1.3798414329272870e+05 2.3626186252632737e+08 1.5327070208286968e+05 1.0032380775340918e+06 1.5327070208286968e+05 2.3541496167487893e+08  2.2854489370445773e+08 -5.7532181545400344e+04 4.1167768492781528e+05 -5.7532181545400374e+04 2.2821535625977471e+08 8.3178392077562938e+04 4.1167768492781499e+05 8.3178392077562894e+04 2.2714392438947791e+08  2.1557992233000967e+08 1.2411631388948949e+05 9.6860350908804708e+05 1.2411631388948951e+05 2.1557598238344434e+08 2.3365571007886954e+05 9.6860350908804708e+05 2.3365571007886957e+05 2.1513748542631218e+08  2.1680671801594687e+08 -4.0687456104751676e+04 5.2248988493879646e+05 -4.0687456104751684e+04 2.1676505411207381e+08 3.4264233169005747e+05 5.2248988493879669e+05 3.4264233169005747e+05 2.1661181797394758e+08  1.8645553678273606e+08 1.9568403093147768e+04 1.0681328228940526e+06 1.9568403093147768e+04 1.8625066066615909e+08 1.2997929673679106e+05 1.0681328228940526e+06 1.2997929673679106e+05 1.8635669619148889e+08  3.2308994704055256e+08 2.6899311531247626e+04 6.9682158141648761e+04 2.6899311531247629e+04 3.2317298093139935e+08 4.0599883988878028e+04 6.9682158141648775e+04 4.0599883988878028e+04 3.2265683672474676e+08  3.2461307090348846e+08 1.1489070929216336e+05 6.5571857755053687e+04 1.1489070929216336e+05 3.2468653087170541e+08 -3.8105002962569466e+04 6.5571857755053672e+04 -3.8105002962569488e+04 3.2374335738337469e+08  3.2976525559363729e+08 -4.9868376723063993e+04 -9.9581695808549484e+03 -4.9868376723063993e+04 3.2971407182157445e+08 -1.4970493535280650e+05 -9.9581695808549521e+03 -1.4970493535280650e+05 3.2912394340131444e+08  3.1800692092497814e+08 4.5589263789435528e+05 1.8624177272029035e+05 4.5589263789435528e+05 3.1785682040994674e+08 -3.5782067345373718e+04 1.8624177272029035e+05 -3.5782067345373689e+04 3.1615806036645275e+08  3.2116216853975314e+08 3.2987732818611876e+04 2.0331810823205704e+05 3.2987732818611876e+04 3.2101464522065997e+08 -8.7940332955103513e+03 2.0331810823205698e+05 -8.7940332955103531e+03 3.2127336973905092e+08  3.2118675287487918e+08 -2.7201186244360539e+04 1.9357158638626619e+05 -2.7201186244360542e+04 3.2118048793595177e+08 1.9530124181753481e+05 1.9357158638626619e+05 1.9530124181753478e+05 3.2161674690949959e+08  3.2088790580300498e+08 2.2283564647491301e+04 1.8611493082098512e+05 2.2283564647491301e+04 3.2056514965955937e+08 1.6404550529712753e+05 1.8611493082098512e+05 1.6404550529712753e+05 3.2122821549602652e+08  3.2006717720016211e+08 2.5194618298428020e+04 9.2454307532359293e+04 2.5194618298428020e+04 3.2017328996994191e+08 3.2946347676317739e+04 9.2454307532359293e+04 3.2946347676317753e+04 3.2033434156213623e+08  3.2130660216506863e+08 -8.0342035048518781e+04 2.6654678606411553e+05 -8.0342035048518796e+04 3.2090485745304400e+08 -5.9131004419550867e+04 2.6654678606411559e+05 -5.9131004419550853e+04 3.2143481025854766e+08  3.2027136716567862e+08 3.4652276295273019e+04 2.1858867629894271e+05 3.4652276295273034e+04 3.2041719371936983e+08 -1.4277591976271025e+05 2.1858867629894268e+05 -1.4277591976271025e+05 3.2079451146000791e+08  3.2086808844683301e+08 -1.2205751516869955e+05 1.6668393239788921e+05 -1.2205751516869955e+05 3.2116960558183932e+08 2.7909315998686492e+04 1.6668393239788924e+05 2.7909315998686492e+04 3.2123775890821177e+08  3.2086199030863607e+08 6.8239217042715652e+04 2.0691363750048459e+05 6.8239217042715652e+04 3.2045025590516543e+08 6.5685361612353576e+04 2.0691363750048459e+05 6.5685361612353576e+04 3.2119788089549339e+08  3.2209970975716203e+08 -1.6845394834610874e+04 -2.92739887