<?xml version="1.0"?>
<VTKFile type="UnstructuredGrid"  version="0.1"  >
<UnstructuredGrid>
<Piece  NumberOfPoints="4907" NumberOfCells="23037">
<Points>
<DataArray  type="Float64"  NumberOfComponents="3"  format="ascii">0 0 0  0 0 0.2  0 1 0.2  0 1 0  1 0 0  1 0 0.2  1 1 0.2  1 1 0  0 0 1.2  0 1 1.2  1 0 1.2  1 1 1.2  0 0 0.04174546103309369  0 0 0.0816025948422595  0 0 0.1210831716649333  0 0 0.1605415858324667  0 0.04761904761904758 0.2  0 0.09523809523809519 0.2  0 0.1428571428571428 0.2  0 0.1904761904761904 0.2  0 0.2380952380952379 0.2  0 0.2857142857142854 0.2  0 0.3333333333333329 0.2  0 0.3809523809523804 0.2  0 0.4285714285714278 0.2  0 0.4761904761904753 0.2  0 0.5238095238095228 0.2  0 0.5714285714285703 0.2  0 0.6190476190476177 0.2  0 0.6666666666666653 0.2  0 0.7142857142857126 0.2  0 0.7619047619047602 0.2  0 0.809523809523808 0.2  0 0.857142857142856 0.2  0 0.9047619047619041 0.2  0 0.952380952380952 0.2  0 1 0.04174120080615058  0 1 0.08159825427264648  0 1 0.1210800795676872  0 1 0.1605400397838436  0 0.05263185666989595 0  0 0.1052634292045066 0  0 0.1578949753019255 0  0 0.2105265606867653 0  0 0.2631580972815438 0  0 0.3157896914200624 0  0 0.3684212218414297 0  0 0.4210528211899031 0  0 0.4736843485186084 0  0 0.5263159496365281 0  0 0.5789474769632287 0  0 0.631579076316224 0  0 0.6842106067321163 0  0 0.7368422008778577 0  0 0.7894737374642301 0  0 0.8421053228608164 0  0 0.8947368689458203 0  0 0.9473684414967007 0  1 0 0.04174120080615058  1 0 0.08159825427264648  1 0 0.1210800795676872  1 0 0.1605400397838436  1 0.04761904761904758 0.2  1 0.09523809523809519 0.2  1 0.1428571428571428 0.2  1 0.1904761904761904 0.2  1 0.2380952380952379 0.2  1 0.2857142857142854 0.2  1 0.3333333333333329 0.2  1 0.3809523809523804 0.2  1 0.4285714285714278 0.2  1 0.4761904761904753 0.2  1 0.5238095238095228 0.2  1 0.5714285714285703 0.2  1 0.6190476190476177 0.2  1 0.6666666666666653 0.2  1 0.7142857142857126 0.2  1 0.7619047619047602 0.2  1 0.809523809523808 0.2  1 0.857142857142856 0.2  1 0.9047619047619041 0.2  1 0.952380952380952 0.2  1 1 0.0417369476568315  1 1 0.08159392147315059  1 1 0.1210769942716541  1 1 0.160538497135827  1 0.05263185629002039 0  1 0.1052634288334169 0  1 0.1578949749757635 0  1 0.2105265603517968 0  1 0.2631580970045133 0  1 0.3157896911222401 0  1 0.3684212216099975 0  1 0.4210528209305459 0  1 0.4736843483298758 0  1 0.526315949417448 0  1 0.5789474768147793 0  1 0.6315790761398384 0  1 0.6842106066221353 0  1 0.7368422007470659 0  1 0.7894737373913995 0  1 0.8421053227791465 0  1 0.8947368689091119 0  1 0.9473684414687341 0  0.05263185666989595 0 0  0.1052634292045066 0 0  0.1578949753019255 0 0  0.2105265606867653 0 0  0.2631580972815438 0 0  0.3157896914200624 0 0  0.3684212218414297 0 0  0.4210528211899031 0 0  0.4736843485186084 0 0  0.5263159496365281 0 0  0.5789474769632287 0 0  0.631579076316224 0 0  0.6842106067321163 0 0  0.7368422008778577 0 0  0.7894737374642301 0 0  0.8421053228608164 0 0  0.8947368689458203 0 0  0.9473684414967007 0 0  0.04761904761904758 0 0.2  0.09523809523809519 0 0.2  0.1428571428571428 0 0.2  0.1904761904761904 0 0.2  0.2380952380952379 0 0.2  0.2857142857142854 0 0.2  0.3333333333333329 0 0.2  0.3809523809523804 0 0.2  0.4285714285714278 0 0.2  0.4761904761904753 0 0.2  0.5238095238095228 0 0.2  0.5714285714285703 0 0.2  0.6190476190476177 0 0.2  0.6666666666666653 0 0.2  0.7142857142857126 0 0.2  0.7619047619047602 0 0.2  0.809523809523808 0 0.2  0.857142857142856 0 0.2  0.9047619047619041 0 0.2  0.952380952380952 0 0.2  0.05263185629002039 1 0  0.1052634288334169 1 0  0.1578949749757635 1 0  0.2105265603517968 1 0  0.2631580970045133 1 0  0.3157896911222401 1 0  0.3684212216099975 1 0  0.4210528209305459 1 0  0.4736843483298758 1 0  0.526315949417448 1 0  0.5789474768147793 1 0  0.6315790761398384 1 0  0.6842106066221353 1 0  0.7368422007470659 1 0  0.7894737373913995 1 0  0.8421053227791465 1 0  0.8947368689091119 1 0  0.9473684414687341 1 0  0.04761904761904758 1 0.2  0.09523809523809519 1 0.2  0.1428571428571428 1 0.2  0.1904761904761904 1 0.2  0.2380952380952379 1 0.2  0.2857142857142854 1 0.2  0.3333333333333329 1 0.2  0.3809523809523804 1 0.2  0.4285714285714278 1 0.2  0.4761904761904753 1 0.2  0.5238095238095228 1 0.2  0.5714285714285703 1 0.2  0.6190476190476177 1 0.2  0.6666666666666653 1 0.2  0.7142857142857126 1 0.2  0.7619047619047602 1 0.2  0.809523809523808 1 0.2  0.857142857142856 1 0.2  0.9047619047619041 1 0.2  0.952380952380952 1 0.2  0 0 0.2461970796399709  0 0 0.2923941592799418  0 0 0.3387243945289861  0 0 0.3863481971058656  0 0 0.441574291840575  0 0 0.5167179017297259  0 0 0.6080084217625917  0 0 0.7000607423740808  0 0 0.7921130629855704  0 0 0.8833936912693379  0 0 0.958474687985821  0 0 1.013662897466742  0 0 1.061277468163518  0 0 1.107605840720058  0 0 1.153802920360029  0 0.04620089013637435 1.2  0 0.09240178027274873 1.2  0 0.1387340666778921 1.2  0 0.1863534125777873 1.2  0 0.2415515669041398 1.2  0 0.3166497522562728 1.2  0 0.4079400865917501 1.2  0 0.4999999999999992 1.2  0 0.5920599134082489 1.2  0 0.6833502477437277 1.2  0 0.7584484330958612 1.2  0 0.8136465874222131 1.2  0 0.8612659333221084 1.2  0 0.9075982197272515 1.2  0 0.9537991098636257 1.2  0 1 0.2461989855902354  0 1 0.2923979711804708  0 1 0.338729230651963  0 1 0.3863508010351772  0 1 0.4415629154477985  0 1 0.5166838010142994  0 1 0.6079742415867959  0 1 0.7000303599955955  0 1 0.7920864784043957  0 1 0.8833719615023048  0 1 0.9584615557035236  0 1 1.013654739687037  0 1 1.061271698617583  0 1 1.107602028819529  0 1 1.153801014409765  1 0 0.2461989855902354  1 0 0.2923979711804708  1 0 0.338729230651963  1 0 0.3863508010351772  1 0 0.4415629154477985  1 0 0.5166838010142994  1 0 0.6079742415867959  1 0 0.7000303599955955  1 0 0.7920864784043957  1 0 0.8833719615023048  1 0 0.9584615557035236  1 0 1.013654739687037  1 0 1.061271698617583  1 0 1.107602028819529  1 0 1.153801014409765  1 0.04620089013637435 1.2  1 0.09240178027274873 1.2  1 0.1387340666778921 1.2  1 0.1863534125777873 1.2  1 0.2415515669041398 1.2  1 0.3166497522562728 1.2  1 0.4079400865917501 1.2  1 0.4999999999999992 1.2  1 0.5920599134082489 1.2  1 0.6833502477437277 1.2  1 0.7584484330958612 1.2  1 0.8136465874222131 1.2  1 0.8612659333221084 1.2  1 0.9075982197272515 1.2  1 0.9537991098636257 1.2  1 1 0.2462008901363744  1 1 0.2924017802727488  1 1 0.3387340666778921  1 1 0.3863534125777873  1 1 0.4415515669041398  1 1 0.5166497522562729  1 1 0.6079400865917501  1 1 0.6999999999999993  1 1 0.7920599134082489  1 1 0.8833502477437276  1 1 0.9584484330958611  1 1 1.013646587422213  1 1 1.061265933322108  1 1 1.107598219727252  1 1 1.153799109863626  0.04620089013637435 0 1.2  0.09240178027274873 0 1.2  0.1387340666778921 0 1.2  0.1863534125777873 0 1.2  0.2415515669041398 0 1.2  0.3166497522562728 0 1.2  0.4079400865917501 0 1.2  0.4999999999999992 0 1.2  0.5920599134082489 0 1.2  0.6833502477437277 0 1.2  0.7584484330958612 0 1.2  0.8136465874222131 0 1.2  0.8612659333221084 0 1.2  0.9075982197272515 0 1.2  0.9537991098636257 0 1.2  0.04620089013637435 1 1.2  0.09240178027274873 1 1.2  0.1387340666778921 1 1.2  0.1863534125777873 1 1.2  0.2415515669041398 1 1.2  0.3166497522562728 1 1.2  0.4079400865917501 1 1.2  0.4999999999999992 1 1.2  0.5920599134082489 1 1.2  0.6833502477437277 1 1.2  0.7584484330958612 1 1.2  0.8136465874222131 1 1.2  0.8612659333221084 1 1.2  0.9075982197272515 1 1.2  0.9537991098636257 1 1.2  0 0.9174203787135049 0.1010896692581779  0 0.08257690981217558 0.1010920585602483  0 0.5003347012163113 0.09565480466245233  0 0.3579071766958429 0.09631703302957953  0 0.6420928291374743 0.09631703607735745  0 0.7797243043371342 0.09849240320516567  0 0.220275227758233 0.09849233697481148  0 0.4268464014745006 0.1284871159603801  0 0.5731535943684238 0.1284870983365682  0 0.2841265102942263 0.1238838186526207  0 0.7158734919473514 0.1238838322173073  0 0.1554683790886158 0.1339575345114501  0 0.8445307903512863 0.1339581342305768  0 0.9444621098867192 0.1359180582078391  0 0.05553720246298189 0.1359202242337109  0 0.9401614251164596 0.06279517424423481  0 0.0598351779806777 0.0627979087993995  0 0.8457902645368612 0.0669343049214856  0 0.1542034570137356 0.0669338751208392  0 0.5529180418081218 0.06043032485893841  0 0.4479426682054376 0.06043034702832769  0 0.3050139349097219 0.0634147356768288  0 0.6949860480610121 0.06341476675675931  0 0.6103041139833327 0.05457483750491998  0 0.3898393980382283 0.05457483760355085  0 0.2483167591694456 0.05531626873508918  0 0.7516831989138379 0.05531633004224915  0 0.5000243949350056 0.1528906184260129  0 0.356905663777464 0.1538031869780879  0 0.6430943380144255 0.153803183295887  0 0.7936079707701743 0.1495044843464697  0 0.2063917227884478 0.1495040620561747  0 0.5014334863978778 0.04515118315392459  0 0.8868510505303583 0.151854759346357  0 0.1131479584394105 0.1518554113123985  0 0.1067710026743579 0.05483251004207659  0 0.8932234602499247 0.05483140958899774  0 0.9630801830434279 0.09402516051499732  0 0.03691850472715916 0.09402833100637134  0 0.1864190906944772 0.05047276525697718  0 0.8135787394375114 0.05047347537625282  0 0.4052969353708534 0.1624138976780648  0 0.5947030640667258 0.162413889615952  0 0.4520244509474903 0.1621610767324497  0 0.547977665464181 0.1621610771326269  0 0.2619047619047616 0.1623800002027558  0 0.7380952380952355 0.1623800020535282  0 0.6904761904761891 0.1624095023381347  0 0.3095238095238091 0.1624095028318688  0 0.347394284581057 0.04286132126199183  0 0.6526345348460318 0.04286132806780735  0 0.590431341562359 0.09429418562442766  0 0.4097360281331379 0.09429420199772316  0 0.2555360372748897 0.09625257533441421  0 0.7444639791616308 0.09625262361767567  0 0.469138862302742 0.1256691554545492  0 0.5308611349892361 0.1256691586025259  0 0.3257362561065827 0.1258537959103161  0 0.6742637516126684 0.1258537964090386  0 0.1763614295507573 0.1000288143999907  0 0.82363627848580
[...]
<PointData  Scalars="T [K]"> 
<DataArray  type="Float64"  Name="T [K]"  format="ascii">3.0000000000000000e+02  3.0836834114587373e+02  3.0836216449660117e+02  3.0000000000000000e+02  3.0000000000000000e+02  3.0836187862884037e+02  3.0837667084766946e+02  3.0000000000000000e+02  4.5000000000000000e+02  4.5000000000000000e+02  4.5000000000000000e+02  4.4999999999999994e+02  3.0177180734320478e+02  3.0345704282236824e+02  3.0511974761700935e+02  3.0676511599363243e+02  3.0850312774173653e+02  3.0864978325494070e+02  3.0878177725672259e+02  3.0890685679904021e+02  3.0900796322042947e+02  3.0908607199707137e+02  3.0916311420788963e+02  3.0921312756522019e+02  3.0925046114676718e+02  3.0926034403452633e+02  3.0926246496710064e+02  3.0924880439057506e+02  3.0921235456201964e+02  3.0916201625842206e+02  3.0908620398190260e+02  3.0900232469654907e+02  3.0890276836679976e+02  3.0877601816027493e+02  3.0863767732711312e+02  3.0850038980251691e+02  3.0177006699515118e+02  3.0345494890493046e+02  3.0511207148436273e+02  3.0676198615526255e+02  3.0000000000000000e+02  3.0000000000000000e+02  3.0000000000000000e+02  3.0000000000000000e+02  3.0000000000000000e+02  3.0000000000000000e+02  3.0000000000000000e+02  3.0000000000000000e+02  3.0000000000000000e+02  3.0000000000000000e+02  3.0000000000000000e+02  3.0000000000000000e+02  3.0000000000000000e+02  3.0000000000000000e+02  3.0000000000000000e+02  3.0000000000000000e+02  3.0000000000000000e+02  3.0000000000000000e+02  3.0177042235827645e+02  3.0345562936695279e+02  3.0511903810482471e+02  3.0676466481340623e+02  3.0850075914258184e+02  3.0864610964522478e+02  3.0877465066240120e+02  3.0889889552652335e+02  3.0900544041780637e+02  3.0908595166560184e+02  3.0915142396120177e+02  3.0920519770109439e+02  3.0924089319883882e+02  3.0926853878593499e+02  3.0926252600320896e+02  3.0925357184623351e+02  3.0921310015167950e+02  3.0916439493457591e+02  3.0908435052492933e+02  3.0899988663657359e+02  3.0890619443098410e+02  3.0877912881185989e+02  3.0864522416615199e+02  3.0851446621133380e+02  3.0177083611390702e+02  3.0345712557349651e+02  3.0512089787302477e+02  3.0677141928944616e+02  3.0000000000000000e+02  3.0000000000000000e+02  3.0000000000000000e+02  3.0000000000000000e+02  3.0000000000000000e+02  3.0000000000000000e+02  3.0000000000000000e+02  3.0000000000000006e+02  3.0000000000000000e+02  3.0000000000000006e+02  3.0000000000000000e+02  3.0000000000000000e+02  3.0000000000000000e+02  3.0000000000000000e+02  3.0000000000000000e+02  3.0000000000000000e+02  3.0000000000000000e+02  3.0000000000000000e+02  3.0000000000000000e+02  3.0000000000000000e+02  3.0000000000000000e+02  3.0000000000000000e+02  3.0000000000000000e+02  3.0000000000000000e+02  3.0000000000000000e+02  3.0000000000000000e+02  3.0000000000000000e+02  3.0000000000000000e+02  3.0000000000000000e+02  3.0000000000000000e+02  3.0000000000000000e+02  3.0000000000000000e+02  3.0000000000000000e+02  3.0000000000000000e+02  3.0000000000000000e+02  3.0000000000000000e+02  3.0850037986400423e+02  3.0864714832163497e+02  3.0877836432179555e+02  3.0889759481185229e+02  3.0900402297765942e+02  3.0908295790296654e+02  3.0916748443242233e+02  3.0920760484978985e+02  3.0924440669929254e+02  3.0925902873397956e+02  3.0926022731788044e+02  3.0925038519737490e+02  3.0921233741996497e+02  3.0916563024587066e+02  3.0907695962604038e+02  3.0899605984079238e+02  3.0889436451357153e+02  3.0877489254603114e+02  3.0863863000694556e+02  3.0849734468044778e+02  3.0000000000000000e+02  3.0000000000000000e+02  3.0000000000000000e+02  3.0000000000000000e+02  3.0000000000000000e+02  3.0000000000000000e+02  3.0000000000000000e+02  3.0000000000000000e+02  3.0000000000000000e+02  3.0000000000000000e+02  3.0000000000000000e+02  3.0000000000000000e+02  3.0000000000000000e+02  3.0000000000000000e+02  3.0000000000000000e+02  3.0000000000000000e+02  2.9999999999999994e+02  3.0000000000000000e+02  3.0849533564003235e+02  3.0864063885265699e+02  3.0877985467342188e+02  3.0890078793585991e+02  3.0900409173352284e+02  3.0908707782855566e+02  3.0916210375538515e+02  3.0921333191181691e+02  3.0925563468212135e+02  3.0926735733641590e+02  3.0926802830031431e+02  3.0924875709617748e+02  3.0921132659867811e+02  3.0916120498662582e+02  3.0907852593415896e+02  3.0899470509931518e+02  3.0889526779927502e+02  3.0875546712098389e+02  3.0864142085758090e+02  3.0851055525110536e+02  3.1209856448722701e+02  3.1593235844205134e+02  3.1987577181572584e+02  3.2402107894349450e+02  3.2894264766421651e+02  3.3598223050363868e+02  3.4524717458447043e+02  3.5515779909603572e+02  3.6626564526460277e+02  3.7870210032327776e+02  3.9027759703475368e+02  3.9987250887258654e+02  4.0932018273994476e+02  4.1979584025736841e+02  4.3227222051353272e+02  4.5000000000000000e+02  4.5000000000000000e+02  4.5000000000000000e+02  4.5000000000000000e+02  4.5000000000000000e+02  4.4999999999999994e+02  4.5000000000000000e+02  4.5000000000000000e+02  4.5000000000000000e+02  4.5000000000000000e+02  4.5000000000000000e+02  4.5000000000000000e+02  4.5000000000000000e+02  4.5000000000000006e+02  4.5000000000000000e+02  3.1208418008436792e+02  3.1590809365869211e+02  3.1984173265272301e+02  3.2396861882952732e+02  3.2893181073283375e+02  3.3598657322262170e+02  3.4523567617576958e+02  3.5512558440220101e+02  3.6629773920083852e+02  3.7880488223283220e+02  3.9022401909088046e+02  3.9990337263286875e+02  4.0923799263435382e+02  4.1967830418634770e+02  4.3228882542864193e+02  3.1207812687015894e+02  3.1591366274288259e+02  3.1985610289951791e+02  3.2397376393324225e+02  3.2890796243563005e+02  3.3597559754013326e+02  3.4525134951544385e+02  3.5520982447471420e+02  3.6627035577670136e+02  3.7870514048009869e+02  3.9027733660823276e+02  3.9988487235337169e+02  4.0932925694352775e+02  4.1975460717908481e+02  4.3226587932738653e+02  4.5000000000000000e+02  4.5000000000000000e+02  4.5000000000000000e+02  4.5000000000000000e+02  4.5000000000000000e+02  4.5000000000000000e+02  4.4999999999999994e+02  4.5000000000000000e+02  4.5000000000000000e+02  4.5000000000000000e+02  4.5000000000000000e+02  4.4999999999999994e+02  4.5000000000000000e+02  4.5000000000000000e+02  4.5000000000000000e+02  3.1208822325399206e+02  3.1592591068972024e+02  3.1986574543228392e+02  3.2400604521592965e+02  3.2892886901920713e+02  3.3593674775676743e+02  3.4513374531988524e+02  3.5509523759923343e+02  3.6622666956926435e+02  3.7866036854362727e+02  3.9027880013822170e+02  3.9995258350631428e+02  4.0923779345008489e+02  4.1961134938545808e+02  4.3238398107606122e+02  4.5000000000000000e+02  4.5000000000000000e+02  4.5000000000000000e+02  4.5000000000000000e+02  4.5000000000000000e+02  4.5000000000000000e+02  4.5000000000000006e+02  4.5000000000000000e+02  4.5000000000000000e+02  4.5000000000000006e+02  4.5000000000000000e+02  4.5000000000000000e+02  4.5000000000000000e+02  4.4999999999999994e+02  4.4999999999999994e+02  4.4999999999999994e+02  4.4999999999999994e+02  4.4999999999999994e+02  4.5000000000000000e+02  4.5000000000000000e+02  4.5000000000000006e+02  4.5000000000000000e+02  4.5000000000000000e+02  4.5000000000000000e+02  4.5000000000000000e+02  4.5000000000000000e+02  4.5000000000000000e+02  4.5000000000000000e+02  4.5000000000000000e+02  4.5000000000000000e+02  3.0437099930777066e+02  3.0437885929872101e+02  3.0444272011515835e+02  3.0443535385910496e+02  3.0443515904996997e+02  3.0442445964361286e+02  3.0442119566381706e+02  3.0595821894617717e+02  3.0595359957879867e+02  3.0564889649703332e+02  3.0565125879883198e+02  3.0592424222593007e+02  3.0591209827185105e+02  3.0582308098345084e+02  3.0582775814999400e+02  3.0270009907064360e+02  3.0270749613669693e+02  3.0296073615674993e+02  3.0296343360461549e+02  3.0280754741647627e+02  3.0280010707768309e+02  3.0289239756056156e+02  3.0289361596178594e+02  3.0251888015047285e+02  3.0251691301384835e+02  3.0249975720762234e+02  3.0249696169546758e+02  3.0709387608310101e+02  3.0707820688422606e+02  3.0707913181273494e+02  3.0669017408085887e+02  3.0669458686982574e+02  3.0209150489720651e+02  3.0662692551202286e+02  3.0662657542631308e+02  3.0239488113763849e+02  3.0239773450080810e+02  3.0401950368972200e+02  3.0402176735957181e+02  3.0225306563113622e+02  3.0225183488927519e+02  3.0751471651361271e+02  3.0750704708010784e+02  3.0751675195439697e+02  3.0752158783330066e+02  3.0736517782185581e+02  3.0735955020122691e+02  3.0742325951391518e+02  3.0741986693971342e+02  3.0196755161787490e+02  3.0196788317218579e+02  3.0436079624883479e+02  3.0435814474120212e+02  3.0435444096022400e+02  3.0435185905152338e+02  3.0583184974118410e+02  3.0583078396373946e+02  3.0577536838241218e+02  3.0577371012843764e+02  3.0446002388566387e+02  3.0445130169635848e+02  3.0744288027513971e+02  3.0743518799810158e+02  3.0445834758622016e+02  3.0444829682370323e+02  3.0140177064845045e+02  3.0140092934633691e+02  3.0715567362448155e+02  3.0715231859090056e+02  3.0591045641673185e+02  3.0591035491922372e+02  3.0134693101616875e+02  3.0135373551976295e+02  3.0743226788765242e+02  3.0743600018953333e+02  3.0570775802664258e+02  3.0569781712719293e+02  3.0151614596452242e+02  3.0151667397763600e+02  3.0130815060949004e+02  3.0130375792215710e+02  3.0266991266981535e+02  3.0267204576446426e+02  3.0467071042162775e+02  3.0462436204979105e+02  3.0165828554408040e+02  3.0166135111779693e+02  3.0437970139265292e+02  3.0437796379395223e+02  3.0443621932580595e+02  3.0443047910988827e+02  3.0443458555077723e+02  3.0442081793575738e+02  3.0441776144031110e+02  3.0594859616800159e+02  3.0595544224221203e+02  3.0564159588383183e+02  3.0563762831005698e+02  3.0591935031048030e+02  3.0591885297026437e+02  3.0583020486130363e+02  3.0583176631487692e+02  3.0270553218982855e+02  3.0270373395008477e+02  3.0295843873751227e+02  3.0295637884327425e+02  3.0280416545712347e+02  3.0280086030243837e+02  3.0289874489387199e+02  3.0290343825774454e+02  3.0252375742159512e+02  3.0251569412321203e+02  3.0249570814571058e+02  3.0249945325488278e+02  3.0709185384320585e+02  3.0706668804593261e+02  3.0707484807241838e+02  3.0669380261744220e+02  3.0669638140317363e+02  3.0209752865430028e+02  3.0662654573541727e+02  3.0662001912968054e+02  3.0239164278996185e+02  3.0239841212706034e+02  3.0402056400965637e+02  3.0401912900046500e+02  3.0225485607657782e+02  3.0225198946085334e+02  3.0750901344233660e+02  3.0751290469796567e+02  3.0751458946363732e+02  3.0751650603422053e+02  3.0736155390010538e+02  3.0735451872426387e+02  3.0741760714365631e+02  3.0741920401551357e+02  3.0196799546388149e+02  3.0196714674545700e+02  3.0435811843046457e+02  3.0435795296327365e+02  3.0435089005692612e+02  3.0435905705423801e+02  3.0583206797283680e+02  3.0583927510467629e+02  3.0576984207050157e+02  3.0576754736029324e+02  3.0444570510132178e+02  3.0445184980950341e+02  3.0743008548661135e+02  3.0743779421896988e+02  3.0445241502306106e+02  3.0445401159120212e+02  3.0140070519900178e+02  3.0140146192723404e+02  3.0716139112267314e+02  3.0715816308789215e+02  3.0590763551117351e+02  3.0590122890288029e+02  3.0134981224304562e+02  3.0134324374647821e+02  3.0743697382304305e+02  3.0743383437895068e+02  3.0569768357841019e+02  3.0569723993409701e+02  3.0151456294641605e+02  3.0151688583306549e+02  3.0130865098241924e+02  3.0130181783390708e+02  3.0267015671071982e+02  3.0266854527553545e+02  3.0467744936927983e+02  3.0461483094879986e+02  3.0165930466345282e+02  3.0166024786902477e+02  3.0437784560265095e+02  3.0437700638438866e+02  3.0444022055016654e+02  3.0443108773919141e+02  3.0443622667193597e+02  3.0442692606847777e+02  3.0442256428630583e+02  3.0595597352550357e+02  3.0595451639512441e+02  3.0564605172604610e+02  3.0564327641354976e+02  3.0591919654420997e+02  3.0591728283330855e+02  3.0582824580568609e+02  3.0583281027355451e+02  3.0270339589766536e+02  3.0270263702529377e+02  3.0295641212659524e+02  3.0295697168330651e+02  3.0280783717655208e+02  3.0280634185447940e+02  3.0290305708001881e+02  3.0289408192931177e+02  3.0251557856087197e+02  3.0252038841437104e+02  3.0250060446137934e+02  3.0249892869612393e+02  3.0709315842945500e+02  3.0707862078272126e+02  3.0707401446148128e+02  3.0669747369687138e+02  3.0669324880576409e+02  3.0209950187615908e+02  3.0662123923935985e+02  3.0662808025952427e+02  3.0239786178295191e+02  3.0239768364530073e+02  3.0402015675009761e+02  3.0402042001840795e+02  3.0225464490062865e+02  3.0225389380162187e+02  3.0750144750215736e+02  3.0751059715375533e+02  3.0750829991275037e+02  3.0752158149177285e+02  3.0735875781435936e+02  3.0736689381718412e+02  3.0741790365102941e+02  3.0741969136264936e+02  3.0197018551189734e+02  3.0196789856145438e+02  3.0436188705774953e+02  3.0436276836463924e+02  3.0435887061230949e+02  3.0435924258486421e+02  3.0583045069588394e+02  3.0583633104133895e+02  3.0576673729884101e+02  3.0577636221348922e+02  3.0444487062211016e+02  3.0444935895788257e+02  3.0743537404313474e+02  3.0743182832606510e+02  3.0445733538191632e+02  3.0445201440568076e+02  3.0140267297261590e+02  3.0140155030168341e+02  3.0715354785231170e+02  3.0715896665800000e+02  3.0590364425864232e+02  3.0590505349570759e+02  3.0134673134213438e+02  3.0135058646526028e+02  3.0742537330118131e+02  3.0742502173568852e+02  3.0570014039317255e+02  3.0570185628813960e+02  3.0151579568191568e+02  3.0151626724306459e+02  3.0130835167170898e+02  3.0130873728301162e+02  3.0267064609888843e+02  3.0266986180877700e+02  3.0467462845795046e+02  3.0460958110108487e+02  3.0165922153968648e+02  3.0165908758152858e+02  3.0438251742940628e+02  3.0437656809915785e+02  3.0444253630015254e+02  3.0443545524774100e+02  3.0442675103477086e+02  3.0442648993558339e+02  3.0442288990963027e+02  3.0595952624945602e+02  3.0595543554821433e+02  3.0563751483132478e+02  3.0563644999229365e+02  3.0592039796859285e+02  3.0590994242821620e+02  3.0583194726801560e+02  3.0582345784552132e+02  3.0270595691589256e+02  3.0270147701346286e+02  3.0295897791436857e+02  3.0295890777603108e+02  3.0280423570668790e+02  3.0280666085859707e+02  3.0289912409803162e+02  3.0290500593372298e+02  3.0251938618079544e+02  3.0252052534951878e+02  3.0249879910220557e+02  3.0250031947223880e+02  3.0709734648393834e+02  3.0707617876954862e+02  3.0708007189913087e+02  3.0668668816117929e+02  3.0669477536946647e+02  3.0209479065805135e+02  3.0662696412173176e+02  3.0662284766342714e+02  3.0240418741867484e+02  3.0239616948020466e+02  3.0402188718783685e+02  3.0402037175433418e+02  3.0225386810767787e+02  3.0224939261857725e+02  3.0751656417215014e+02  3.0750575207074678e+02  3.0752024606729373e+02  3.0752429513965541e+02  3.0735763780924799e+02  3.0735702349787198e+02  3.0742182658937685e+02  3.0742120821619721e+02  3.0196634329957072e+02  3.0196803098804810e+02  3.0436377692296458e+02  3.0435765684041598e+02  3.0435753011170215e+02  3.0435668926014716e+02  3.0583180765949140e+02  3.0583374037839940e+02  3.0576982836225437e+02  3.0576594454509592e+02  3.0444333398587611e+02  3.0444612822477688e+02  3.0743849946069719e+02  3.0742762369723187e+02  3.0445245085504143e+02  3.0444454264377805e+02  3.0140069182770338e+02  3.0140216630931087e+02  3.0716523569504631e+02  3.0715261792712056e+02  3.0591473380499576e+02  3.0590968373392468e+02  3.0134626072661723e+02  3.0135573267605832e+02  3.0742478835090844e+02  3.0742440638815037e+02  3.0570361953505881e+02  3.0569478024032452e+02  3.0151759247888771e+02  3.0151384904048444e+02  3.0130829955722652e+02  3.0130447868703993e+02  3.0267092668552641e+02  3.0266842449201044e+02  3.0468137378721218e+02  3.0461813540677696e+02  3.0166193479397185e+02  3.0165684096461621e+02  3.0000000000000000e+02  3.0000000000000000e+02  3.0000000000000000e+02  3.0000000000000000e+02  3.0000000000000000e+02  3.0000000000000000e+02  3.0000000000000000e+02  3.0000000000000000e+02  3.0000000000000000e+02  3.0000000000000000e+02  3.0000000000000000e+02  3.0000000000000000e+02  3.0000000000000000e+02  3.0000000000000000e+02  3.0000000000000000e+02  3.0000000000000000e+02  3.0000000000000000e+02  3.0000000000000000e+02  3.0000000000000000e+02  3.0000000000000000e+02  3.0000000000000000e+02  3.0000000000000000e+02  3.0000000000000000e+02  3.0000000000000000e+02  3.0000000000000000e+02  3.0000000000000000e+02  3.0000000000000000e+02  3.0000000000000000e+02  3.0000000000000000e+02  3.0000000000000000e+02  3.0000000000000000e+02  3.0000000000000000e+02  3.0000000000000000e+02  3.0000000000000000e+02  3.0000000000000000e+02  3.0000000000000000e+02  3.0000000000000000e+02  3.0000000000000000e+02  3.0000000000000000e+02  3.0000000000000000e+02  3.0000000000000000e+02  3.0000000000000000e+02  3.0000000000000000e+02  3.0000000000000000e+02  3.0000000000000000e+02  3.0000000000000000e+02  3.0000000000000000e+02  3.0000000000000000e+02  2.9999999999999994e+02  3.0000000000000000e+02  3.0000000000000000e+02  3.0000000000000000e+02  3.0000000000000000e+02  3.0000000000000000e+02  3.0000000000000000e+02  3.0000000000000000e+02  3.0000000000000000e+02  3.0000000000000000e+02  3.0000000000000000e+02  3.0000000000000000e+02  3.0000000000000000e+02  3.0000000000000000e+02  3.0000000000000000e+02  3.0000000000000000e+02  3.0000000000000000e+02  3.0000000000000000e+02  3.0000000000000000e+02  3.0000000000000000e+02  3.0000000000000000e+02  3.0000000000000000e+02  3.0000000000000000e+02  3.0000000000000000e+02  3.0000000000000000e+02  3.0000000000000000e+02  3.0000000000000000e+02  3.0000000000000000e+02  3.0000000000000000e+02  3.0000000000000000e+02  3.0000000000000000e+02  3.0000000000000000e+02  3.0000000000000000e+02  3.0000000000000000e+02  3.0000000000000000e+02  3.0000000000000000e+02  3.0000000000000000e+02  3.0000000000000000e+02  3.0000000000000000e+02  3.0000000000000000e+02  3.0000000000000000e+02  3.0000000000000000e+02  3.0000000000000000e+02  3.0000000000000000e+02  3.0000000000000000e+02  3.0000000000000000e+02  3.0000000000000000e+02  3.0000000000000000e+02  3.0000000000000000e+02  3.0000000000000000e+02  3.0000000000000000e+02  3.0000000000000000e+02  3.0000000000000000e+02  3.0000000000000000e+02  3.0000000000000000e+02  3.0000000000000000e+02  3.0000000000000000e+02  3.0000000000000000e+02  3.0000000000000000e+02  3.0000000000000000e+02  3.0000000000000000e+02  3.0000000000000000e+02  3.0000000000000000e+02  3.0000000000000000e+02  3.0000000000000000e+02  3.0000000000000000e+02  3.0000000000000000e+02  3.0000000000000000e+02  3.0000000000000000e+02  3.0000000000000000e+02  3.0000000000000000e+02  3.0000000000000000e+02  3.0000000000000000e+02  3.0000000000000000e+02  3.0000000000000000e+02  3.0000000000000000e+02  3.0000000000000000e+02  3.0000000000000000e+02  3.0000000000000000e+02  3.0000000000000000e+02  3.0000000000000000e+02  3.0000000000000000e+02  3.0000000000000000e+02  3.0000000000000000e+02  3.0000000000000000e+02  3.0000000000000000e+02  3.0000000000000000e+02  3.0000000000000000e+02  3.0000000000000000e+02  3.0000000000000000e+02  3.0000000000000000e+02  3.0000000000000000e+02  3.0000000000000000e+02  3.0000000000000000e+02  3.0000000000000000e+02  3.0000000000000000e+02  3.0000000000000000e+02  3.0000000000000000e+02  3.0000000000000000e+02  3.0000000000000000e+02  3.0000000000000000e+02  3.0000000000000000e+02  3.0000000000000000e+02  3.0000000000000000e+02  3.0000000000000000e+02  3.0000000000000000e+02  3.0000000000000000e+02  3.0000000000000000e+02  3.0000000000000000e+02  3.0000000000000000e+02  3.0000000000000000e+02  3.0000000000000000e+02  3.0000000000000000e+02  3.0000000000000000e+02  3.0000000000000000e+02  3.0000000000000000e+02  3.0000000000000000e+02  3.0000000000000000e+02  3.0000000000000000e+02  3.0000000000000000e+02  3.0000000000000000e+02  3.0000000000000000e+02  3.0000000000000000e+02  3.0000000000000000e+02  3.0000000000000000e+02  3.0000000000000000e+02  3.0000000000000000e+02  3.0000000000000000e+02  3.0000000000000000e+02  3.0000000000000000e+02  3.0000000000000000e+02  3.0000000000000000e+02  3.0000000000000000e+02  3.000000000000000