<?xml version="1.0"?>
<VTKFile type="UnstructuredGrid"  version="0.1"  >
<UnstructuredGrid>
<Piece  NumberOfPoints="2601" NumberOfCells="5000">
<Points>
<DataArray  type="Float64"  NumberOfComponents="3"  format="ascii">0 0 0  0.0004 0 0  0.0008 0 0  0.0012 0 0  0.0016 0 0  0.002 0 0  0.0024 0 0  0.0028 0 0  0.0032 0 0  0.0036 0 0  0.004 0 0  0.0044 0 0  0.0048 0 0  0.0052 0 0  0.005600000000000001 0 0  0.006 0 0  0.0064 0 0  0.0068 0 0  0.0072 0 0  0.0076 0 0  0.008 0 0  0.008399999999999999 0 0  0.008800000000000001 0 0  0.0092 0 0  0.009599999999999999 0 0  0.01 0 0  0.0104 0 0  0.0108 0 0  0.0112 0 0  0.0116 0 0  0.012 0 0  0.0124 0 0  0.0128 0 0  0.0132 0 0  0.0136 0 0  0.014 0 0  0.0144 0 0  0.0148 0 0  0.0152 0 0  0.0156 0 0  0.016 0 0  0.0164 0 0  0.0168 0 0  0.0172 0 0  0.0176 0 0  0.018 0 0  0.0184 0 0  0.0188 0 0  0.0192 0 0  0.0196 0 0  0.02 0 0  0 0.00024 0  0.0004 0.00024 0  0.0008 0.00024 0  0.0012 0.00024 0  0.0016 0.00024 0  0.002 0.00024 0  0.0024 0.00024 0  0.0028 0.00024 0  0.0032 0.00024 0  0.0036 0.00024 0  0.004 0.00024 0  0.0044 0.00024 0  0.0048 0.00024 0  0.0052 0.00024 0  0.005600000000000001 0.00024 0  0.006 0.00024 0  0.0064 0.00024 0  0.0068 0.00024 0  0.0072 0.00024 0  0.0076 0.00024 0  0.008 0.00024 0  0.008399999999999999 0.00024 0  0.008800000000000001 0.00024 0  0.0092 0.00024 0  0.009599999999999999 0.00024 0  0.01 0.00024 0  0.0104 0.00024 0  0.0108 0.00024 0  0.0112 0.00024 0  0.0116 0.00024 0  0.012 0.00024 0  0.0124 0.00024 0  0.0128 0.00024 0  0.0132 0.00024 0  0.0136 0.00024 0  0.014 0.00024 0  0.0144 0.00024 0  0.0148 0.00024 0  0.0152 0.00024 0  0.0156 0.00024 0  0.016 0.00024 0  0.0164 0.00024 0  0.0168 0.00024 0  0.0172 0.00024 0  0.0176 0.00024 0  0.018 0.00024 0  0.0184 0.00024 0  0.0188 0.00024 0  0.0192 0.00024 0  0.0196 0.00024 0  0.02 0.00024 0  0 0.00048 0  0.0004 0.00048 0  0.0008 0.00048 0  0.0012 0.00048 0  0.0016 0.00048 0  0.002 0.00048 0  0.0024 0.00048 0  0.0028 0.00048 0  0.0032 0.00048 0  0.0036 0.00048 0  0.004 0.00048 0  0.0044 0.00048 0  0.0048 0.00048 0  0.0052 0.00048 0  0.005600000000000001 0.00048 0  0.006 0.00048 0  0.0064 0.00048 0  0.0068 0.00048 0  0.0072 0.00048 0  0.0076 0.00048 0  0.008 0.00048 0  0.008399999999999999 0.00048 0  0.008800000000000001 0.00048 0  0.0092 0.00048 0  0.009599999999999999 0.00048 0  0.01 0.00048 0  0.0104 0.00048 0  0.0108 0.00048 0  0.0112 0.00048 0  0.0116 0.00048 0  0.012 0.00048 0  0.0124 0.00048 0  0.0128 0.00048 0  0.0132 0.00048 0  0.0136 0.00048 0  0.014 0.00048 0  0.0144 0.00048 0  0.0148 0.00048 0  0.0152 0.00048 0  0.0156 0.00048 0  0.016 0.00048 0  0.0164 0.00048 0  0.0168 0.00048 0  0.0172 0.00048 0  0.0176 0.00048 0  0.018 0.00048 0  0.0184 0.00048 0  0.0188 0.00048 0  0.0192 0.00048 0  0.0196 0.00048 0  0.02 0.00048 0  0 0.00072 0  0.0004 0.00072 0  0.0008 0.00072 0  0.0012 0.00072 0  0.0016 0.00072 0  0.002 0.00072 0  0.0024 0.00072 0  0.0028 0.00072 0  0.0032 0.00072 0  0.0036 0.00072 0  0.004 0.00072 0  0.0044 0.00072 0  0.0048 0.00072 0  0.0052 0.00072 0  0.005600000000000001 0.00072 0  0.006 0.00072 0  0.0064 0.00072 0  0.0068 0.00072 0  0.0072 0.00072 0  0.0076 0.00072 0  0.008 0.00072 0  0.008399999999999999 0.00072 0  0.008800000000000001 0.00072 0  0.0092 0.00072 0  0.009599999999999999 0.00072 0  0.01 0.00072 0  0.0104 0.00072 0  0.0108 0.00072 0  0.0112 0.00072 0  0.0116 0.00072 0  0.012 0.00072 0  0.0124 0.00072 0  0.0128 0.00072 0  0.0132 0.00072 0  0.0136 0.00072 0  0.014 0.00072 0  0.0144 0.00072 0  0.0148 0.00072 0  0.0152 0.00072 0  0.0156 0.00072 0  0.016 0.00072 0  0.0164 0.00072 0  0.0168 0.00072 0  0.0172 0.00072 0  0.0176 0.00072 0  0.018 0.00072 0  0.0184 0.00072 0  0.0188 0.00072 0  0.0192 0.00072 0  0.0196 0.00072 0  0.02 0.00072 0  0 0.00096 0  0.0004 0.00096 0  0.0008 0.00096 0  0.0012 0.00096 0  0.0016 0.00096 0  0.002 0.00096 0  0.0024 0.00096 0  0.0028 0.00096 0  0.0032 0.00096 0  0.0036 0.00096 0  0.004 0.00096 0  0.0044 0.00096 0  0.0048 0.00096 0  0.0052 0.00096 0  0.005600000000000001 0.00096 0  0.006 0.00096 0  0.0064 0.00096 0  0.0068 0.00096 0  0.0072 0.00096 0  0.0076 0.00096 0  0.008 0.00096 0  0.008399999999999999 0.00096 0  0.008800000000000001 0.00096 0  0.0092 0.00096 0  0.009599999999999999 0.00096 0  0.01 0.00096 0  0.0104 0.00096 0  0.0108 0.00096 0  0.0112 0.00096 0  0.0116 0.00096 0  0.012 0.00096 0  0.0124 0.00096 0  0.0128 0.00096 0  0.0132 0.00096 0  0.0136 0.00096 0  0.014 0.00096 0  0.0144 0.00096 0  0.0148 0.00096 0  0.0152 0.00096 0  0.0156 0.00096 0  0.016 0.00096 0  0.0164 0.00096 0  0.0168 0.00096 0  0.0172 0.00096 0  0.0176 0.00096 0  0.018 0.00096 0  0.0184 0.00096 0  0.0188 0.00096 0  0.0192 0.00096 0  0.0196 0.00096 0  0.02 0.00096 0  0 0.0012 0  0.0004 0.0012 0  0.0008 0.0012 0  0.0012 0.0012 0  0.0016 0.0012 0  0.002 0.0012 0  0.0024 0.0012 0  0.0028 0.0012 0  0.0032 0.0012 0  0.0036 0.0012 0  0.004 0.0012 0  0.0044 0.0012 0  0.0048 0.0012 0  0.0052 0.0012 0  0.005600000000000001 0.0012 0  0.006 0.0012 0  0.0064 0.0012 0  0.0068 0.0012 0  0.0072 0.0012 0  0.0076 0.0012 0  0.008 0.0012 0  0.008399999999999999 0.0012 0  0.008800000000000001 0.0012 0  0.0092 0.0012 0  0.009599999999999999 0.0012 0  0.01 0.0012 0  0.0104 0.0012 0  0.0108 0.0012 0  0.0112 0.0012 0  0.0116 0.0012 0  0.012 0.0012 0  0.0124 0.0012 0  0.0128 0.0012 0  0.0132 0.0012 0  0.0136 0.0012 0  0.014 0.0012 0  0.0144 0.0012 0  0.0148 0.0012 0  0.0152 0.0012 0  0.0156 0.0012 0  0.016 0.0012 0  0.0164 0.0012 0  0.0168 0.0012 0  0.0172 0.0012 0  0.0176 0.0012 0  0.018 0.0012 0  0.0184 0.0012 0  0.0188 0.0012 0  0.0192 0.0012 0  0.0196 0.0012 0  0.02 0.0012 0  0 0.00144 0  0.0004 0.00144 0  0.0008 0.00144 0  0.0012 0.00144 0  0.0016 0.00144 0  0.002 0.00144 0  0.0024 0.00144 0  0.0028 0.00144 0  0.0032 0.00144 0  0.0036 0.00144 0  0.004 0.00144 0  0.0044 0.00144 0  0.0048 0.00144 0  0.0052 0.00144 0  0.005600000000000001 0.00144 0  0.006 0.00144 0  0.0064 0.00144 0  0.0068 0.00144 0  0.0072 0.00144 0  0.0076 0.00144 0  0.008 0.00144 0  0.008399999999999999 0.00144 0  0.008800000000000001 0.00144 0  0.0092 0.00144 0  0.009599999999999999 0.00144 0  0.01 0.00144 0  0.0104 0.00144 0  0.0108 0.00144 0  0.0112 0.00144 0  0.0116 0.00144 0  0.012 0.00144 0  0.0124 0.00144 0  0.0128 0.00144 0  0.0132 0.00144 0  0.0136 0.00144 0  0.014 0.00144 0  0.0144 0.00144 0  0.0148 0.00144 0  0.0152 0.00144 0  0.0156 0.00144 0  0.016 0.00144 0  0.0164 0.00144 0  0.0168 0.00144 0  0.0172 0.00144 0  0.0176 0.00144 0  0.018 0.00144 0  0.0184 0.00144 0  0.0188 0.00144 0  0.0192 0.00144 0  0.0196 0.00144 0  0.02 0.00144 0  0 0.00168 0  0.0004 0.00168 0  0.0008 0.00168 0  0.0012 0.00168 0  0.0016 0.00168 0  0.002 0.00168 0  0.0024 0.00168 0  0.0028 0.00168 0  0.0032 0.00168 0  0.0036 0.00168 0  0.004 0.00168 0  0.0044 0.00168 0  0.0048 0.00168 0  0.0052 0.00168 0  0.005600000000000001 0.00168 0  0.006 0.00168 0  0.0064 0.00168 0  0.0068 0.00168 0  0.0072 0.00168 0  0.0076 0.00168 0  0.008 0.00168 0  0.008399999999999999 0.00168 0  0.008800000000000001 0.00168 0  0.0092 0.00168 0  0.009599999999999999 0.00168 0  0.01 0.00168 0  0.0104 0.00168 0  0.0108 0.00168 0  0.0112 0.00168 0  0.0116 0.00168 0  0.012 0.00168 0  0.0124 0.00168 0  0.0128 0.00168 0  0.0132 0.00168 0  0.0136 0.00168 0  0.014 0.00168 0  0.0144 0.00168 0  0.0148 0.00168 0  0.0152 0.00168 0  0.0156 0.00168 0  0.016 0.00168 0  0.0164 0.00168 0  0.0168 0.00168 0  0.0172 0.00168 0  0.0176 0.00168 0  0.018 0.00168 0  0.0184 0.00168 0  0.0188 0.00168 0  0.0192 0.00168 0  0.0196 0.00168 0  0.02 0.00168 0  0 0.00192 0  0.0004 0.00192 0  0.0008 0.00192 0  0.0012 0.00192 0  0.0016 0.00192 0  0.002 0.00192 0  0.0024 0.00192 0  0.0028 0.00192 0  0.0032 0.00192 0  0.0036 0.00192 0  0.004 0.00192 0  0.0044 0.00192 0  0.0048 0.00192 0  0.0052 0.00192 0  0.005600000000000001 0.00192 0  0.006 0.00192 0  0.0064 0.00192 0  0.0068 0.00192 0  0.0072 0.00192 0  0.0076 0.00192 0  0.008 0.00192 0  0.008399999999999999 0.00192 0  0.008800000000000001 0.00192 0  0.0092 0.00192 0  0.009599999999999999 0.00192 0  0.01 0.00192 0  0.0104 0.00192 0  0.0108 0.00192 0  0.0112 0.00192 0  0.0116 0.00192 0  0.012 0.00192 0  0.0124 0.00192 0  0.0128 0.00192 0  0.0132 0.00192 0  0.0136 0.00192 0  0.014 0.00192 0  0.0144 0.00192 0  0.0148 0.00192 0  0.0152 0.00192 0  0.0156 0.00192 0  0.016 0.00192 0  0.0164 0.00192 0  0.0168 0.00192 0  0.0172 0.00192 0  0.0176 0.00192 0  0.018 0.00192 0  0.0184 0.00192 0  0.0188 0.00192 0  0.0192 0.00192 0  0.0196 0.00192 0  0.02 0.00192 0  0 0.00216 0  0.0004 0.00216 0  0.0008 0.00216 0  0.0012 0.00216 0  0.0016 0.00216 0  0.002 0.00216 0  0.0024 0.00216 0  0.0028 0.00216 0  0.0032 0.00216 0  0.0036 0.00216 0  0.004 0.00216 0  0.0044 0.00216 0  0.0048 0.00216 0  0.0052 0.00216 0  0.005600000000000001 0.00216 0  0.006 0.00216 0  0.0064 0.00216 0  0.0068 0.00216 0  0.0072 0.00216 0  0.0076 0.00216 0  0.008 0.00216 0  0.008399999999999999 0.00216 0  0.008800000000000001 0.00216 0  0.0092 0.00216 0  0.009599999999999999 0.00216 0  0.01 0.00216 0  0.0104 0.00216 0  0.0108 0.00216 0  0.0112 0.00216 0  0.0116 0.00216 0  0.012 0.00216 0  0.0124 0.00216 0  0.0128 0.00216 0  0.0132 0.00216 0  0.0136 0.00216 0  0.014 0.00216 0  0.0144 0.00216 0  0.0148 0.00216 0  0.0152 0.00216 0  0.0156 0.00216 0  0.016 0.00216 0  0.0164 0.00216 0  0.0168 0.00216 0  0.0172 0.00216 0  0.0176 0.00216 0  0.018 0.00216 0  0.0184 0.00216 0  0.0188 0.00216 0  0.0192 0.00216 0  0.0196 0.00216 0  0.02 0.00216 0  0 0.0024 0  0.0004 0.0024 0  0.0008 0.0024 0  0.0012 0.0024 0  0.0016 0.0024 0  0.002 0.0024 0  0.0024 0.0024 0  0.0028 0.0024 0  0.0032 0.0024 0  0.0036 0.0024 0  0.004 0.0024 0  0.0044 0.0024 0  0.0048 0.0024 0  0.0052 0.0024 0  0.005600000000000001 0.0024 0  0.006 0.0024 0  0.0064 0.0024 0  0.0068 0.0024 0  0.0072 0.0024 0  0.0076 0.0024 0  0.008 0.0024 0  0.008399999999999999 0.0024 0  0.008800000000000001 0.0024 0  0.0092 0.0024 0  0.009599999999999999 0.0024 0  0.01 0.0024 0  0.0104 0.0024 0  0.0108 0.0024 0  0.0112 0.0024 0  0.0116 0.0024 0  0.012 0.0024
[...]
<PointData  Scalars="T [K]"> 
<DataArray  type="Float64"  Name="T [K]"  format="ascii">2.0000000000000000e+01  2.0000000000000000e+01  2.0000000000000000e+01  2.0000000000000000e+01  2.0000000000000000e+01  2.0000000000000000e+01  2.0000000000000000e+01  2.0000000000000000e+01  2.0000000000000000e+01  2.0000000000000000e+01  2.0000000000000000e+01  2.0000000000000000e+01  2.0000000000000000e+01  2.0000000000000000e+01  2.0000000000000000e+01  2.0000000000000000e+01  2.0000000000000000e+01  2.0000000000000000e+01  2.0000000000000000e+01  2.0000000000000000e+01  2.0000000000000000e+01  2.0000000000000000e+01  2.0000000000000000e+01  2.0000000000000000e+01  2.0000000000000000e+01  2.0000000000000000e+01  2.0000000000000000e+01  2.0000000000000000e+01  2.0000000000000000e+01  2.0000000000000000e+01  2.0000000000000000e+01  2.0000000000000000e+01  2.0000000000000000e+01  2.0000000000000000e+01  2.0000000000000000e+01  2.0000000000000000e+01  2.0000000000000000e+01  2.0000000000000000e+01  2.0000000000000000e+01  2.0000000000000000e+01  2.0000000000000000e+01  2.0000000000000000e+01  2.0000000000000000e+01  2.0000000000000000e+01  2.0000000000000000e+01  2.0000000000000000e+01  2.0000000000000000e+01  2.0000000000000000e+01  2.0000000000000000e+01  2.0000000000000000e+01  2.0000000000000000e+01  2.1942194417420833e+01  2.1940555308714746e+01  2.1942194417420858e+01  2.1940555308714767e+01  2.1942194417420872e+01  2.1940555308714767e+01  2.1942194417420886e+01  2.1940555308714782e+01  2.1942194417420890e+01  2.1940555308714810e+01  2.1942194417420904e+01  2.1940555308714799e+01  2.1942194417420907e+01  2.1940555308714799e+01  2.1942194417420907e+01  2.1940555308714803e+01  2.1942194417420907e+01  2.1940555308714799e+01  2.1942194417420907e+01  2.1940555308714796e+01  2.1942194417420904e+01  2.1940555308714799e+01  2.1942194417420897e+01  2.1940555308714796e+01  2.1942194417420900e+01  2.1940555308714792e+01  2.1942194417420904e+01  2.1940555308714799e+01  2.1942194417420897e+01  2.1940555308714803e+01  2.1942194417420911e+01  2.1940555308714799e+01  2.1942194417420918e+01  2.1940555308714814e+01  2.1942194417420914e+01  2.1940555308714810e+01  2.1942194417420918e+01  2.1940555308714814e+01  2.1942194417420914e+01  2.1940555308714814e+01  2.1942194417420925e+01  2.1940555308714824e+01  2.1942194417420925e+01  2.1940555308714821e+01  2.1942194417420925e+01  2.1940555308714817e+01  2.1942194417420936e+01  2.1940555308714838e+01  2.1942194417420943e+01  2.1940555308714845e+01  2.1942194417420950e+01  2.3892469914295688e+01  2.3893732411100412e+01  2.3892469914295734e+01  2.3893732411100462e+01  2.3892469914295759e+01  2.3893732411100476e+01  2.3892469914295781e+01  2.3893732411100494e+01  2.3892469914295795e+01  2.3893732411100533e+01  2.3892469914295830e+01  2.3893732411100530e+01  2.3892469914295823e+01  2.3893732411100522e+01  2.3892469914295816e+01  2.3893732411100533e+01  2.3892469914295837e+01  2.3893732411100530e+01  2.3892469914295820e+01  2.3893732411100508e+01  2.3892469914295813e+01  2.3893732411100515e+01  2.3892469914295805e+01  2.3893732411100515e+01  2.3892469914295809e+01  2.3893732411100515e+01  2.3892469914295813e+01  2.3893732411100526e+01  2.3892469914295816e+01  2.3893732411100530e+01  2.3892469914295830e+01  2.3893732411100540e+01  2.3892469914295834e+01  2.3893732411100551e+01  2.3892469914295845e+01  2.3893732411100544e+01  2.3892469914295834e+01  2.3893732411100540e+01  2.3892469914295834e+01  2.3893732411100547e+01  2.3892469914295848e+01  2.3893732411100565e+01  2.3892469914295869e+01  2.3893732411100576e+01  2.3892469914295877e+01  2.3893732411100583e+01  2.3892469914295880e+01  2.3893732411100586e+01  2.3892469914295891e+01  2.3893732411100601e+01  2.3892469914295901e+01  2.5856866101113678e+01  2.5855333226344303e+01  2.5856866101113742e+01  2.5855333226344360e+01  2.5856866101113791e+01  2.5855333226344399e+01  2.5856866101113820e+01  2.5855333226344424e+01  2.5856866101113841e+01  2.5855333226344463e+01  2.5856866101113884e+01  2.5855333226344474e+01  2.5856866101113862e+01  2.5855333226344460e+01  2.5856866101113873e+01  2.5855333226344474e+01  2.5856866101113894e+01  2.5855333226344474e+01  2.5856866101113866e+01  2.5855333226344445e+01  2.5856866101113852e+01  2.5855333226344452e+01  2.5856866101113852e+01  2.5855333226344452e+01  2.5856866101113855e+01  2.5855333226344452e+01  2.5856866101113855e+01  2.5855333226344463e+01  2.5856866101113866e+01  2.5855333226344474e+01  2.5856866101113884e+01  2.5855333226344488e+01  2.5856866101113894e+01  2.5855333226344509e+01  2.5856866101113908e+01  2.5855333226344491e+01  2.5856866101113891e+01  2.5855333226344484e+01  2.5856866101113898e+01  2.5855333226344499e+01  2.5856866101113919e+01  2.5855333226344534e+01  2.5856866101113933e+01  2.5855333226344541e+01  2.5856866101113955e+01  2.5855333226344548e+01  2.5856866101113962e+01  2.5855333226344559e+01  2.5856866101113976e+01  2.5855333226344580e+01  2.5856866101114001e+01  2.7830498081283757e+01  2.7832094853229986e+01  2.7830498081283817e+01  2.7832094853230046e+01  2.7830498081283871e+01  2.7832094853230110e+01  2.7830498081283931e+01  2.7832094853230153e+01  2.7830498081283956e+01  2.7832094853230185e+01  2.7830498081283999e+01  2.7832094853230206e+01  2.7830498081283995e+01  2.7832094853230192e+01  2.7830498081283991e+01  2.7832094853230210e+01  2.7830498081284013e+01  2.7832094853230206e+01  2.7830498081283984e+01  2.7832094853230181e+01  2.7830498081283974e+01  2.7832094853230174e+01  2.7830498081283960e+01  2.7832094853230167e+01  2.7830498081283963e+01  2.7832094853230178e+01  2.7830498081283981e+01  2.7832094853230199e+01  2.7830498081283988e+01  2.7832094853230195e+01  2.7830498081284006e+01  2.7832094853230235e+01  2.7830498081284031e+01  2.7832094853230256e+01  2.7830498081284041e+01  2.7832094853230238e+01  2.7830498081284031e+01  2.7832094853230231e+01  2.7830498081284027e+01  2.7832094853230249e+01  2.7830498081284048e+01  2.7832094853230281e+01  2.7830498081284080e+01  2.7832094853230299e+01  2.7830498081284105e+01  2.7832094853230313e+01  2.7830498081284109e+01  2.7832094853230323e+01  2.7830498081284130e+01  2.7832094853230355e+01  2.7830498081284158e+01  2.9820487344588191e+01  2.9818759502182932e+01  2.9820487344588265e+01  2.9818759502182989e+01  2.9820487344588336e+01  2.9818759502183070e+01  2.9820487344588400e+01  2.9818759502183134e+01  2.9820487344588436e+01  2.9818759502183148e+01  2.9820487344588468e+01  2.9818759502183180e+01  2.9820487344588482e+01  2.9818759502183184e+01  2.9820487344588489e+01  2.9818759502183198e+01  2.9820487344588496e+01  2.9818759502183187e+01  2.9820487344588479e+01  2.9818759502183152e+01  2.9820487344588468e+01  2.9818759502183152e+01  2.9820487344588454e+01  2.9818759502183141e+01  2.9820487344588457e+01  2.9818759502183156e+01  2.9820487344588489e+01  2.9818759502183180e+01  2.9820487344588482e+01  2.9818759502183191e+01  2.9820487344588511e+01  2.9818759502183223e+01  2.9820487344588532e+01  2.9818759502183241e+01  2.9820487344588535e+01  2.9818759502183230e+01  2.9820487344588532e+01  2.9818759502183223e+01  2.9820487344588543e+01  2.9818759502183241e+01  2.9820487344588567e+01  2.9818759502183283e+01  2.9820487344588596e+01  2.9818759502183312e+01  2.9820487344588614e+01  2.9818759502183319e+01  2.9820487344588635e+01  2.9818759502183344e+01  2.9820487344588653e+01  2.9818759502183351e+01  2.9820487344588678e+01  3.1821099360164162e+01  3.1822937797030207e+01  3.1821099360164222e+01  3.1822937797030267e+01  3.1821099360164311e+01  3.1822937797030370e+01  3.1821099360164396e+01  3.1822937797030438e+01  3.1821099360164432e+01  3.1822937797030448e+01  3.1821099360164457e+01  3.1822937797030484e+01  3.1821099360164478e+01  3.1822937797030505e+01  3.1821099360164489e+01  3.1822937797030505e+01  3.1821099360164478e+01  3.1822937797030484e+01  3.1821099360164467e+01  3.1822937797030470e+01  3.1821099360164464e+01  3.1822937797030466e+01  3.1821099360164443e+01  3.1822937797030441e+01  3.1821099360164446e+01  3.1822937797030480e+01  3.1821099360164496e+01  3.1822937797030498e+01  3.1821099360164489e+01  3.1822937797030505e+01  3.1821099360164517e+01  3.1822937797030541e+01  3.1821099360164538e+01  3.1822937797030548e+01  3.1821099360164538e+01  3.1822937797030548e+01  3.1821099360164546e+01  3.1822937797030558e+01  3.1821099360164560e+01  3.1822937797030587e+01  3.1821099360164592e+01  3.1822937797030622e+01  3.1821099360164624e+01  3.1822937797030658e+01  3.1821099360164649e+01  3.1822937797030658e+01  3.1821099360164666e+01  3.1822937797030693e+01  3.1821099360164684e+01  3.1822937797030701e+01  3.1821099360164698e+01  3.3840404977623884e+01  3.3838448254011126e+01  3.3840404977623955e+01  3.3838448254011197e+01  3.3840404977624054e+01  3.3838448254011318e+01  3.3840404977624139e+01  3.3838448254011382e+01  3.3840404977624175e+01  3.3838448254011404e+01  3.3840404977624210e+01  3.3838448254011446e+01  3.3840404977624239e+01  3.3838448254011467e+01  3.3840404977624253e+01  3.3838448254011446e+01  3.3840404977624232e+01  3.3838448254011439e+01  3.3840404977624218e+01  3.3838448254011418e+01  3.3840404977624218e+01  3.3838448254011411e+01  3.3840404977624196e+01  3.3838448254011404e+01  3.3840404977624203e+01  3.3838448254011446e+01  3.3840404977624253e+01  3.3838448254011475e+01  3.3840404977624253e+01  3.3838448254011475e+01  3.3840404977624296e+01  3.3838448254011503e+01  3.3840404977624303e+01  3.3838448254011510e+01  3.3840404977624317e+01  3.3838448254011524e+01  3.3840404977624317e+01  3.3838448254011546e+01  3.3840404977624345e+01  3.3838448254011581e+01  3.3840404977624381e+01  3.3838448254011610e+01  3.3840404977624409e+01  3.3838448254011652e+01  3.3840404977624445e+01  3.3838448254011645e+01  3.3840404977624459e+01  3.3838448254011674e+01  3.3840404977624480e+01  3.3838448254011695e+01  3.3840404977624502e+01  3.5871762428024901e+01  3.5873836173757446e+01  3.5871762428024958e+01  3.5873836173757525e+01  3.5871762428025072e+01  3.5873836173757653e+01  3.5871762428025171e+01  3.5873836173757716e+01  3.5871762428025200e+01  3.5873836173757752e+01  3.5871762428025228e+01  3.5873836173757802e+01  3.5871762428025271e+01  3.5873836173757830e+01  3.5871762428025306e+01  3.5873836173757809e+01  3.5871762428025264e+01  3.5873836173757788e+01  3.5871762428025242e+01  3.5873836173757788e+01  3.5871762428025249e+01  3.5873836173757752e+01  3.5871762428025221e+01  3.5873836173757745e+01  3.5871762428025242e+01  3.5873836173757809e+01  3.5871762428025292e+01  3.5873836173757844e+01  3.5871762428025313e+01  3.5873836173757844e+01  3.5871762428025335e+01  3.5873836173757859e+01  3.5871762428025342e+01  3.5873836173757866e+01  3.5871762428025363e+01  3.5873836173757894e+01  3.5871762428025370e+01  3.5873836173757908e+01  3.5871762428025406e+01  3.5873836173757965e+01  3.5871762428025448e+01  3.5873836173757994e+01  3.5871762428025470e+01  3.5873836173758015e+01  3.5871762428025505e+01  3.5873836173758036e+01  3.5871762428025527e+01  3.5873836173758050e+01  3.5871762428025541e+01  3.5873836173758079e+01  3.5871762428025569e+01  3.7924192155093337e+01  3.7921999707601238e+01  3.7924192155093415e+01  3.7921999707601337e+01  3.7924192155093550e+01  3.7921999707601472e+01  3.7924192155093621e+01  3.7921999707601522e+01  3.7924192155093692e+01  3.7921999707601586e+01  3.7924192155093735e+01  3.7921999707601628e+01  3.7924192155093770e+01  3.7921999707601657e+01  3.7924192155093799e+01  3.7921999707601650e+01  3.7924192155093770e+01  3.7921999707601614e+01  3.7924192155093742e+01  3.7921999707601621e+01  3.7924192155093742e+01  3.7921999707601586e+01  3.7924192155093699e+01  3.7921999707601579e+01  3.7924192155093749e+01  3.7921999707601628e+01  3.7924192155093799e+01  3.7921999707601692e+01  3.7924192155093813e+01  3.7921999707601685e+01  3.7924192155093820e+01  3.7921999707601685e+01  3.7924192155093834e+01  3.7921999707601714e+01  3.7924192155093856e+01  3.7921999707601735e+01  3.7924192155093870e+01  3.7921999707601749e+01  3.7924192155093927e+01  3.7921999707601813e+01  3.7924192155093976e+01  3.7921999707601856e+01  3.7924192155093984e+01  3.7921999707601884e+01  3.7924192155094019e+01  3.7921999707601891e+01  3.7924192155094033e+01  3.7921999707601913e+01  3.7924192155094069e+01  3.7921999707601948e+01  3.7924192155094097e+01  3.9990127809658183e+01  3.9992439768452591e+01  3.9990127809658276e+01  3.9992439768452712e+01  3.9990127809658425e+01  3.9992439768452847e+01  3.9990127809658482e+01  3.9992439768452925e+01  3.9990127809658567e+01  3.9992439768452975e+01  3.9990127809658624e+01  3.9992439768453025e+01  3.9990127809658667e+01  3.9992439768453067e+01  3.9990127809658667e+01  3.9992439768453053e+01  3.9990127809658659e+01  3.9992439768453025e+01  3.9990127809658624e+01  3.9992439768453025e+01  3.9990127809658631e+01  3.9992439768452989e+01  3.9990127809658574e+01  3.9992439768452982e+01  3.9990127809658631e+01  3.9992439768453032e+01  3.9990127809658688e+01  3.9992439768453089e+01  3.9990127809658702e+01  3.9992439768453082e+01  3.9990127809658688e+01  3.9992439768453089e+01  3.9990127809658716e+01  3.9992439768453124e+01  3.9990127809658752e+01  3.9992439768453146e+01  3.9990127809658773e+01  3.9992439768453174e+01  3.9990127809658830e+01  3.9992439768453231e+01  3.9990127809658880e+01  3.9992439768453274e+01  3.9990127809658894e+01  3.9992439768453309e+01  3.9990127809658929e+01  3.9992439768453309e+01  3.9990127809658944e+01  3.9992439768453330e+01  3.9990127809658979e+01  3.9992439768453373e+01  3.9990127809659008e+01  4.2079554912982921e+01  4.2077122280097122e+01  4.2079554912983035e+01  4.2077122280097271e+01  4.2079554912983198e+01  4.2077122280097399e+01  4.2079554912983269e+01  4.2077122280097491e+01  4.2079554912983369e+01  4.2077122280097541e+01  4.2079554912983433e+01  4.2077122280097591e+01  4.2079554912983461e+01  4.2077122280097633e+01  4.2079554912983475e+01  4.2077122280097612e+01  4.2079554912983468e+01  4.2077122280097583e+01  4.2079554912983426e+01  4.2077122280097576e+01  4.2079554912983419e+01  4.2077122280097562e+01  4.2079554912983390e+01  4.2077122280097527e+01  4.2079554912983411e+01  4.2077122280097576e+01  4.2079554912983468e+01  4.2077122280097633e+01  4.2079554912983482e+01  4.2077122280097647e+01  4.2079554912983490e+01  4.2077122280097655e+01  4.2079554912983518e+01  4.2077122280097697e+01  4.2079554912983568e+01  4.2077122280097711e+01  4.2079554912983568e+01  4.2077122280097733e+01  4.2079554912983632e+01  4.2077122280097797e+01  4.2079554912983681e+01  4.2077122280097853e+01  4.2079554912983710e+01  4.2077122280097882e+01  4.2079554912983753e+01  4.2077122280097896e+01  4.2079554912983753e+01  4.2077122280097917e+01  4.2079554912983795e+01  4.2077122280097960e+01  4.2079554912983838e+01  4.4183967761543720e+01  4.4186522193080719e+01  4.4183967761543833e+01  4.4186522193080876e+01  4.4183967761544004e+01  4.4186522193081018e+01  4.4183967761544096e+01  4.4186522193081117e+01  4.4183967761544203e+01  4.4186522193081196e+01  4.4183967761544274e+01  4.4186522193081224e+01  4.4183967761544295e+01  4.4186522193081281e+01  4.4183967761544302e+01  4.4186522193081231e+01  4.4183967761544302e+01  4.4186522193081217e+01  4.4183967761544253e+01  4.4186522193081203e+01  4.4183967761544245e+01  4.4186522193081196e+01  4.4183967761544217e+01  4.4186522193081139e+01  4.4183967761544217e+01  4.4186522193081188e+01  4.4183967761544281e+01  4.4186522193081245e+01  4.4183967761544295e+01  4.4186522193081281e+01  4.4183967761544316e+01  4.4186522193081288e+01  4.4183967761544359e+01  4.4186522193081323e+01  4.4183967761544395e+01  4.4186522193081345e+01  4.4183967761544402e+01  4.4186522193081373e+01  4.4183967761544466e+01  4.4186522193081437e+01  4.4183967761544501e+01  4.4186522193081487e+01  4.4183967761544551e+01  4.4186522193081530e+01  4.4183967761544594e+01  4.4186522193081537e+01  4.4183967761544594e+01  4.4186522193081565e+01  4.4183967761544629e+01  4.4186522193081622e+01  4.4183967761544686e+01  4.6314335641745764e+01  4.6311658199032244e+01  4.6314335641745906e+01  4.6311658199032394e+01  4.6314335641746098e+01  4.6311658199032557e+01  4.6314335641746190e+01  4.6311658199032664e+01  4.6314335641746297e+01  4.6311658199032749e+01  4.6314335641746375e+01  4.6311658199032777e+01  4.6314335641746418e+01  4.6311658199032834e+01  4.6314335641746403e+01  4.6311658199032777e+01  4.6314335641746396e+01  4.6311658199032763e+01  4.6314335641746368e+01  4.6311658199032742e+01  4.6314335641746339e+01  4.6311658199032749e+01  4.6314335641746325e+01  4.6311658199032699e+01  4.6314335641746311e+01  4.6311658199032728e+01  4.6314335641746368e+01  4.6311658199032792e+01  4.6314335641746389e+01  4.6311658199032820e+01  4.6314335641746418e+01  4.6311658199032841e+01  4.6314335641746460e+01  4.6311658199032877e+01  4.6314335641746503e+01  4.6311658199032898e+01  4.6314335641746510e+01  4.6311658199032934e+01  4.6314335641746574e+01  4.6311658199032998e+01  4.6314335641746624e+01  4.6311658199033040e+01  4.6314335641746673e+01  4.6311658199033111e+01  4.6314335641746723e+01  4.6311658199033097e+01  4.6314335641746709e+01  4.6311658199033133e+01  4.6314335641746759e+01  4.6311658199033197e+01  4.6314335641746830e+01  4.8461197391899390e+01  4.8463999106570768e+01  4.8461197391899532e+01  4.8463999106570931e+01  4.8461197391899731e+01  4.8463999106571109e+01  4.8461197391899852e+01  4.8463999106571215e+01  4.8461197391899944e+01  4.8463999106571293e+01  4.8461197391900036e+01  4.8463999106571336e+01  4.8461197391900072e+01  4.8463999106571386e+01  4.8461197391900050e+01  4.8463999106571350e+01  4.8461197391900058e+01  4.8463999106571336e+01  4.8461197391900029e+01  4.8463999106571315e+01  4.8461197391900001e+01  4.8463999106571301e+01  4.8461197391899958e+01  4.8463999106571244e+01  4.8461197391899958e+01  4.8463999106571279e+01  4.8461197391900015e+01  4.8463999106571343e+01  4.8461197391900036e+01  4.8463999106571372e+01  4.8461197391900065e+01  4.8463999106571379e+01  4.8461197391900093e+01  4.8463999106571436e+01  4.8461197391900157e+01  4.8463999106571457e+01  4.8461197391900178e+01  4.8463999106571492e+01  4.8461197391900221e+01  4.8463999106571549e+01  4.8461197391900285e+01  4.8463999106571613e+01  4.8461197391900342e+01  4.8463999106571677e+01  4.8461197391900399e+01  4.8463999106571691e+01  4.8461197391900384e+01  4.8463999106571706e+01  4.8461197391900427e+01  4.8463999106571769e+01  4.8461197391900491e+01  5.0636526749929352e+01  5.0633599440756257e+01  5.0636526749929523e+01  5.0633599440756427e+01  5.0636526749929715e+01  5.0633599440756612e+01  5.0636526749929828e+01  5.0633599440756704e+01  5.0636526749929921e+01  5.0633599440756790e+01  5.0636526749930013e+01  5.0633599440756861e+01  5.0636526749930063e+01  5.0633599440756889e+01  5.0636526749930056e+01  5.0633599440756861e+01  5.0636526749930049e+01  5.0633599440756868e+01  5.0636526749930027e+01  5.0633599440756825e+01  5.0636526749929985e+01  5.0633599440756818e+01  5.0636526749929963e+01  5.0633599440756754e+01  5.0636526749929949e+01  5.0633599440756782e+01  5.0636526749930027e+01  5.0633599440756861e+01  5.0636526749930034e+01  5.0633599440756853e+01  5.0636526749930056e+01  5.0633599440756903e+01  5.0636526749930091e+01  5.0633599440756946e+01  5.0636526749930148e+01  5.0633599440756967e+01  5.0636526749930169e+01  5.0633599440756988e+01  5.0636526749930219e+01  5.0633599440757074e+01  5.0636526749930290e+01  5.0633599440757138e+01  5.0636526749930354e+01  5.0633599440757209e+01  5.0636526749930404e+01  5.0633599440757209e+01  5.0636526749930404e+01  5.0633599440757244e+01  5.0636526749930454e+01  5.0633599440757280e+01  5.0636526749930503e+01  5.2829889234442327e+01  5.2832943518909325e+01  5.2829889234442469e+01  5.2832943518909531e+01  5.2829889234442675e+01  5.2832943518909694e+01  5.2829889234442781e+01  5.2832943518909794e+01  5.2829889234442874e+01  5.2832943518909879e+01  5.2829889234442973e+01  5.2832943518909950e+01  5.2829889234442994e+01  5.283294351890997