<?xml version="1.0"?>
<VTKFile type="UnstructuredGrid"  version="0.1"  >
<UnstructuredGrid>
<Piece  NumberOfPoints="2601" NumberOfCells="5000">
<Points>
<DataArray  type="Float64"  NumberOfComponents="3"  format="ascii">0 0 0  0.0004 0 0  0.0008 0 0  0.0012 0 0  0.0016 0 0  0.002 0 0  0.0024 0 0  0.0028 0 0  0.0032 0 0  0.0036 0 0  0.004 0 0  0.0044 0 0  0.0048 0 0  0.0052 0 0  0.005600000000000001 0 0  0.006 0 0  0.0064 0 0  0.0068 0 0  0.0072 0 0  0.0076 0 0  0.008 0 0  0.008399999999999999 0 0  0.008800000000000001 0 0  0.0092 0 0  0.009599999999999999 0 0  0.01 0 0  0.0104 0 0  0.0108 0 0  0.0112 0 0  0.0116 0 0  0.012 0 0  0.0124 0 0  0.0128 0 0  0.0132 0 0  0.0136 0 0  0.014 0 0  0.0144 0 0  0.0148 0 0  0.0152 0 0  0.0156 0 0  0.016 0 0  0.0164 0 0  0.0168 0 0  0.0172 0 0  0.0176 0 0  0.018 0 0  0.0184 0 0  0.0188 0 0  0.0192 0 0  0.0196 0 0  0.02 0 0  0 0.00024 0  0.0004 0.00024 0  0.0008 0.00024 0  0.0012 0.00024 0  0.0016 0.00024 0  0.002 0.00024 0  0.0024 0.00024 0  0.0028 0.00024 0  0.0032 0.00024 0  0.0036 0.00024 0  0.004 0.00024 0  0.0044 0.00024 0  0.0048 0.00024 0  0.0052 0.00024 0  0.005600000000000001 0.00024 0  0.006 0.00024 0  0.0064 0.00024 0  0.0068 0.00024 0  0.0072 0.00024 0  0.0076 0.00024 0  0.008 0.00024 0  0.008399999999999999 0.00024 0  0.008800000000000001 0.00024 0  0.0092 0.00024 0  0.009599999999999999 0.00024 0  0.01 0.00024 0  0.0104 0.00024 0  0.0108 0.00024 0  0.0112 0.00024 0  0.0116 0.00024 0  0.012 0.00024 0  0.0124 0.00024 0  0.0128 0.00024 0  0.0132 0.00024 0  0.0136 0.00024 0  0.014 0.00024 0  0.0144 0.00024 0  0.0148 0.00024 0  0.0152 0.00024 0  0.0156 0.00024 0  0.016 0.00024 0  0.0164 0.00024 0  0.0168 0.00024 0  0.0172 0.00024 0  0.0176 0.00024 0  0.018 0.00024 0  0.0184 0.00024 0  0.0188 0.00024 0  0.0192 0.00024 0  0.0196 0.00024 0  0.02 0.00024 0  0 0.00048 0  0.0004 0.00048 0  0.0008 0.00048 0  0.0012 0.00048 0  0.0016 0.00048 0  0.002 0.00048 0  0.0024 0.00048 0  0.0028 0.00048 0  0.0032 0.00048 0  0.0036 0.00048 0  0.004 0.00048 0  0.0044 0.00048 0  0.0048 0.00048 0  0.0052 0.00048 0  0.005600000000000001 0.00048 0  0.006 0.00048 0  0.0064 0.00048 0  0.0068 0.00048 0  0.0072 0.00048 0  0.0076 0.00048 0  0.008 0.00048 0  0.008399999999999999 0.00048 0  0.008800000000000001 0.00048 0  0.0092 0.00048 0  0.009599999999999999 0.00048 0  0.01 0.00048 0  0.0104 0.00048 0  0.0108 0.00048 0  0.0112 0.00048 0  0.0116 0.00048 0  0.012 0.00048 0  0.0124 0.00048 0  0.0128 0.00048 0  0.0132 0.00048 0  0.0136 0.00048 0  0.014 0.00048 0  0.0144 0.00048 0  0.0148 0.00048 0  0.0152 0.00048 0  0.0156 0.00048 0  0.016 0.00048 0  0.0164 0.00048 0  0.0168 0.00048 0  0.0172 0.00048 0  0.0176 0.00048 0  0.018 0.00048 0  0.0184 0.00048 0  0.0188 0.00048 0  0.0192 0.00048 0  0.0196 0.00048 0  0.02 0.00048 0  0 0.00072 0  0.0004 0.00072 0  0.0008 0.00072 0  0.0012 0.00072 0  0.0016 0.00072 0  0.002 0.00072 0  0.0024 0.00072 0  0.0028 0.00072 0  0.0032 0.00072 0  0.0036 0.00072 0  0.004 0.00072 0  0.0044 0.00072 0  0.0048 0.00072 0  0.0052 0.00072 0  0.005600000000000001 0.00072 0  0.006 0.00072 0  0.0064 0.00072 0  0.0068 0.00072 0  0.0072 0.00072 0  0.0076 0.00072 0  0.008 0.00072 0  0.008399999999999999 0.00072 0  0.008800000000000001 0.00072 0  0.0092 0.00072 0  0.009599999999999999 0.00072 0  0.01 0.00072 0  0.0104 0.00072 0  0.0108 0.00072 0  0.0112 0.00072 0  0.0116 0.00072 0  0.012 0.00072 0  0.0124 0.00072 0  0.0128 0.00072 0  0.0132 0.00072 0  0.0136 0.00072 0  0.014 0.00072 0  0.0144 0.00072 0  0.0148 0.00072 0  0.0152 0.00072 0  0.0156 0.00072 0  0.016 0.00072 0  0.0164 0.00072 0  0.0168 0.00072 0  0.0172 0.00072 0  0.0176 0.00072 0  0.018 0.00072 0  0.0184 0.00072 0  0.0188 0.00072 0  0.0192 0.00072 0  0.0196 0.00072 0  0.02 0.00072 0  0 0.00096 0  0.0004 0.00096 0  0.0008 0.00096 0  0.0012 0.00096 0  0.0016 0.00096 0  0.002 0.00096 0  0.0024 0.00096 0  0.0028 0.00096 0  0.0032 0.00096 0  0.0036 0.00096 0  0.004 0.00096 0  0.0044 0.00096 0  0.0048 0.00096 0  0.0052 0.00096 0  0.005600000000000001 0.00096 0  0.006 0.00096 0  0.0064 0.00096 0  0.0068 0.00096 0  0.0072 0.00096 0  0.0076 0.00096 0  0.008 0.00096 0  0.008399999999999999 0.00096 0  0.008800000000000001 0.00096 0  0.0092 0.00096 0  0.009599999999999999 0.00096 0  0.01 0.00096 0  0.0104 0.00096 0  0.0108 0.00096 0  0.0112 0.00096 0  0.0116 0.00096 0  0.012 0.00096 0  0.0124 0.00096 0  0.0128 0.00096 0  0.0132 0.00096 0  0.0136 0.00096 0  0.014 0.00096 0  0.0144 0.00096 0  0.0148 0.00096 0  0.0152 0.00096 0  0.0156 0.00096 0  0.016 0.00096 0  0.0164 0.00096 0  0.0168 0.00096 0  0.0172 0.00096 0  0.0176 0.00096 0  0.018 0.00096 0  0.0184 0.00096 0  0.0188 0.00096 0  0.0192 0.00096 0  0.0196 0.00096 0  0.02 0.00096 0  0 0.0012 0  0.0004 0.0012 0  0.0008 0.0012 0  0.0012 0.0012 0  0.0016 0.0012 0  0.002 0.0012 0  0.0024 0.0012 0  0.0028 0.0012 0  0.0032 0.0012 0  0.0036 0.0012 0  0.004 0.0012 0  0.0044 0.0012 0  0.0048 0.0012 0  0.0052 0.0012 0  0.005600000000000001 0.0012 0  0.006 0.0012 0  0.0064 0.0012 0  0.0068 0.0012 0  0.0072 0.0012 0  0.0076 0.0012 0  0.008 0.0012 0  0.008399999999999999 0.0012 0  0.008800000000000001 0.0012 0  0.0092 0.0012 0  0.009599999999999999 0.0012 0  0.01 0.0012 0  0.0104 0.0012 0  0.0108 0.0012 0  0.0112 0.0012 0  0.0116 0.0012 0  0.012 0.0012 0  0.0124 0.0012 0  0.0128 0.0012 0  0.0132 0.0012 0  0.0136 0.0012 0  0.014 0.0012 0  0.0144 0.0012 0  0.0148 0.0012 0  0.0152 0.0012 0  0.0156 0.0012 0  0.016 0.0012 0  0.0164 0.0012 0  0.0168 0.0012 0  0.0172 0.0012 0  0.0176 0.0012 0  0.018 0.0012 0  0.0184 0.0012 0  0.0188 0.0012 0  0.0192 0.0012 0  0.0196 0.0012 0  0.02 0.0012 0  0 0.00144 0  0.0004 0.00144 0  0.0008 0.00144 0  0.0012 0.00144 0  0.0016 0.00144 0  0.002 0.00144 0  0.0024 0.00144 0  0.0028 0.00144 0  0.0032 0.00144 0  0.0036 0.00144 0  0.004 0.00144 0  0.0044 0.00144 0  0.0048 0.00144 0  0.0052 0.00144 0  0.005600000000000001 0.00144 0  0.006 0.00144 0  0.0064 0.00144 0  0.0068 0.00144 0  0.0072 0.00144 0  0.0076 0.00144 0  0.008 0.00144 0  0.008399999999999999 0.00144 0  0.008800000000000001 0.00144 0  0.0092 0.00144 0  0.009599999999999999 0.00144 0  0.01 0.00144 0  0.0104 0.00144 0  0.0108 0.00144 0  0.0112 0.00144 0  0.0116 0.00144 0  0.012 0.00144 0  0.0124 0.00144 0  0.0128 0.00144 0  0.0132 0.00144 0  0.0136 0.00144 0  0.014 0.00144 0  0.0144 0.00144 0  0.0148 0.00144 0  0.0152 0.00144 0  0.0156 0.00144 0  0.016 0.00144 0  0.0164 0.00144 0  0.0168 0.00144 0  0.0172 0.00144 0  0.0176 0.00144 0  0.018 0.00144 0  0.0184 0.00144 0  0.0188 0.00144 0  0.0192 0.00144 0  0.0196 0.00144 0  0.02 0.00144 0  0 0.00168 0  0.0004 0.00168 0  0.0008 0.00168 0  0.0012 0.00168 0  0.0016 0.00168 0  0.002 0.00168 0  0.0024 0.00168 0  0.0028 0.00168 0  0.0032 0.00168 0  0.0036 0.00168 0  0.004 0.00168 0  0.0044 0.00168 0  0.0048 0.00168 0  0.0052 0.00168 0  0.005600000000000001 0.00168 0  0.006 0.00168 0  0.0064 0.00168 0  0.0068 0.00168 0  0.0072 0.00168 0  0.0076 0.00168 0  0.008 0.00168 0  0.008399999999999999 0.00168 0  0.008800000000000001 0.00168 0  0.0092 0.00168 0  0.009599999999999999 0.00168 0  0.01 0.00168 0  0.0104 0.00168 0  0.0108 0.00168 0  0.0112 0.00168 0  0.0116 0.00168 0  0.012 0.00168 0  0.0124 0.00168 0  0.0128 0.00168 0  0.0132 0.00168 0  0.0136 0.00168 0  0.014 0.00168 0  0.0144 0.00168 0  0.0148 0.00168 0  0.0152 0.00168 0  0.0156 0.00168 0  0.016 0.00168 0  0.0164 0.00168 0  0.0168 0.00168 0  0.0172 0.00168 0  0.0176 0.00168 0  0.018 0.00168 0  0.0184 0.00168 0  0.0188 0.00168 0  0.0192 0.00168 0  0.0196 0.00168 0  0.02 0.00168 0  0 0.00192 0  0.0004 0.00192 0  0.0008 0.00192 0  0.0012 0.00192 0  0.0016 0.00192 0  0.002 0.00192 0  0.0024 0.00192 0  0.0028 0.00192 0  0.0032 0.00192 0  0.0036 0.00192 0  0.004 0.00192 0  0.0044 0.00192 0  0.0048 0.00192 0  0.0052 0.00192 0  0.005600000000000001 0.00192 0  0.006 0.00192 0  0.0064 0.00192 0  0.0068 0.00192 0  0.0072 0.00192 0  0.0076 0.00192 0  0.008 0.00192 0  0.008399999999999999 0.00192 0  0.008800000000000001 0.00192 0  0.0092 0.00192 0  0.009599999999999999 0.00192 0  0.01 0.00192 0  0.0104 0.00192 0  0.0108 0.00192 0  0.0112 0.00192 0  0.0116 0.00192 0  0.012 0.00192 0  0.0124 0.00192 0  0.0128 0.00192 0  0.0132 0.00192 0  0.0136 0.00192 0  0.014 0.00192 0  0.0144 0.00192 0  0.0148 0.00192 0  0.0152 0.00192 0  0.0156 0.00192 0  0.016 0.00192 0  0.0164 0.00192 0  0.0168 0.00192 0  0.0172 0.00192 0  0.0176 0.00192 0  0.018 0.00192 0  0.0184 0.00192 0  0.0188 0.00192 0  0.0192 0.00192 0  0.0196 0.00192 0  0.02 0.00192 0  0 0.00216 0  0.0004 0.00216 0  0.0008 0.00216 0  0.0012 0.00216 0  0.0016 0.00216 0  0.002 0.00216 0  0.0024 0.00216 0  0.0028 0.00216 0  0.0032 0.00216 0  0.0036 0.00216 0  0.004 0.00216 0  0.0044 0.00216 0  0.0048 0.00216 0  0.0052 0.00216 0  0.005600000000000001 0.00216 0  0.006 0.00216 0  0.0064 0.00216 0  0.0068 0.00216 0  0.0072 0.00216 0  0.0076 0.00216 0  0.008 0.00216 0  0.008399999999999999 0.00216 0  0.008800000000000001 0.00216 0  0.0092 0.00216 0  0.009599999999999999 0.00216 0  0.01 0.00216 0  0.0104 0.00216 0  0.0108 0.00216 0  0.0112 0.00216 0  0.0116 0.00216 0  0.012 0.00216 0  0.0124 0.00216 0  0.0128 0.00216 0  0.0132 0.00216 0  0.0136 0.00216 0  0.014 0.00216 0  0.0144 0.00216 0  0.0148 0.00216 0  0.0152 0.00216 0  0.0156 0.00216 0  0.016 0.00216 0  0.0164 0.00216 0  0.0168 0.00216 0  0.0172 0.00216 0  0.0176 0.00216 0  0.018 0.00216 0  0.0184 0.00216 0  0.0188 0.00216 0  0.0192 0.00216 0  0.0196 0.00216 0  0.02 0.00216 0  0 0.0024 0  0.0004 0.0024 0  0.0008 0.0024 0  0.0012 0.0024 0  0.0016 0.0024 0  0.002 0.0024 0  0.0024 0.0024 0  0.0028 0.0024 0  0.0032 0.0024 0  0.0036 0.0024 0  0.004 0.0024 0  0.0044 0.0024 0  0.0048 0.0024 0  0.0052 0.0024 0  0.005600000000000001 0.0024 0  0.006 0.0024 0  0.0064 0.0024 0  0.0068 0.0024 0  0.0072 0.0024 0  0.0076 0.0024 0  0.008 0.0024 0  0.008399999999999999 0.0024 0  0.008800000000000001 0.0024 0  0.0092 0.0024 0  0.009599999999999999 0.0024 0  0.01 0.0024 0  0.0104 0.0024 0  0.0108 0.0024 0  0.0112 0.0024 0  0.0116 0.0024 0  0.012 0.0024
[...]
<PointData  Vectors="U [m]"> 
<DataArray  type="Float64"  Name="U [m]"  NumberOfComponents="3" format="ascii">-1.9768516521644612e-06 -3.1522377939675501e-05 0.0000000000000000e+00  -1.9693827489387478e-06 -3.0812982422676273e-05 0.0000000000000000e+00  -1.9663154866739225e-06 -3.0133157153316196e-05 0.0000000000000000e+00  -1.9664926297395995e-06 -2.9494307040067280e-05 0.0000000000000000e+00  -1.9662105386603234e-06 -2.8893335993288106e-05 0.0000000000000000e+00  -1.9619350884424134e-06 -2.8339616273664205e-05 0.0000000000000000e+00  -1.9527219536873218e-06 -2.7824248779711004e-05 0.0000000000000000e+00  -1.9341833299919934e-06 -2.7354840604112030e-05 0.0000000000000000e+00  -1.9077730177137850e-06 -2.6921576009440298e-05 0.0000000000000000e+00  -1.8689356367264924e-06 -2.6529982972576053e-05 0.0000000000000000e+00  -1.8207850249456342e-06 -2.6171249242117336e-05 0.0000000000000000e+00  -1.7590673695181287e-06 -2.5848896681789011e-05 0.0000000000000000e+00  -1.6878111993939491e-06 -2.5555948167896504e-05 0.0000000000000000e+00  -1.6033395277931329e-06 -2.5294186559390819e-05 0.0000000000000000e+00  -1.5099729482711245e-06 -2.5058694658694329e-05 0.0000000000000000e+00  -1.4047405865995957e-06 -2.4849861253261127e-05 0.0000000000000000e+00  -1.2917997240018528e-06 -2.4664708972344848e-05 0.0000000000000000e+00  -1.1689181818414115e-06 -2.4502581428459815e-05 0.0000000000000000e+00  -1.0397982105479563e-06 -2.4362148620990218e-05 0.0000000000000000e+00  -9.0292617496180024e-07 -2.4242023325829159e-05 0.0000000000000000e+00  -7.6139223988390062e-07 -2.4142171006607529e-05 0.0000000000000000e+00  -6.1436286222419126e-07 -2.4060741415694125e-05 0.0000000000000000e+00  -4.6425480276821716e-07 -2.3998651093790986e-05 0.0000000000000000e+00  -3.1088130442755794e-07 -2.3953813954295331e-05 0.0000000000000000e+00  -1.5598148419651200e-07 -2.3927792777840116e-05 0.0000000000000000e+00  -3.4508040580442102e-19 -2.3918468740565826e-05 0.0000000000000000e+00  1.5598148419581851e-07 -2.3927792777839801e-05 0.0000000000000000e+00  3.1088130442683611e-07 -2.3953813954294725e-05 0.0000000000000000e+00  4.6425480276747384e-07 -2.3998651093790099e-05 0.0000000000000000e+00  6.1436286222342427e-07 -2.4060741415692956e-05 0.0000000000000000e+00  7.6139223988311511e-07 -2.4142171006606042e-05 0.0000000000000000e+00  9.0292617496095871e-07 -2.4242023325827380e-05 0.0000000000000000e+00  1.0397982105470658e-06 -2.4362148620988195e-05 0.0000000000000000e+00  1.1689181818404394e-06 -2.4502581428457518e-05 0.0000000000000000e+00  1.2917997240007938e-06 -2.4664708972342351e-05 0.0000000000000000e+00  1.4047405865984573e-06 -2.4849861253258542e-05 0.0000000000000000e+00  1.5099729482699431e-06 -2.5058694658691636e-05 0.0000000000000000e+00  1.6033395277919020e-06 -2.5294186559388010e-05 0.0000000000000000e+00  1.6878111993926777e-06 -2.5555948167893573e-05 0.0000000000000000e+00  1.7590673695167925e-06 -2.5848896681785935e-05 0.0000000000000000e+00  1.8207850249442419e-06 -2.6171249242114168e-05 0.0000000000000000e+00  1.8689356367250512e-06 -2.6529982972572835e-05 0.0000000000000000e+00  1.9077730177123183e-06 -2.6921576009437025e-05 0.0000000000000000e+00  1.9341833299905081e-06 -2.7354840604108689e-05 0.0000000000000000e+00  1.9527219536858204e-06 -2.7824248779707545e-05 0.0000000000000000e+00  1.9619350884408654e-06 -2.8339616273660678e-05 0.0000000000000000e+00  1.9662105386587437e-06 -2.8893335993284504e-05 0.0000000000000000e+00  1.9664926297379724e-06 -2.9494307040063678e-05 0.0000000000000000e+00  1.9663154866722750e-06 -3.0133157153312568e-05 0.0000000000000000e+00  1.9693827489371130e-06 -3.0812982422672702e-05 0.0000000000000000e+00  1.9768516521628582e-06 -3.1522377939671869e-05 0.0000000000000000e+00  -2.4065380839834895e-06 -3.1518792736062516e-05 0.0000000000000000e+00  -2.3833759510411828e-06 -3.0807050095443471e-05 0.0000000000000000e+00  -2.3612004765100222e-06 -3.0128832176409007e-05 0.0000000000000000e+00  -2.3387282952593492e-06 -2.9486606245619015e-05 0.0000000000000000e+00  -2.3138612702724264e-06 -2.8890325744055298e-05 0.0000000000000000e+00  -2.2857719937739680e-06 -2.8333611898637514e-05 0.0000000000000000e+00  -2.2509108452987656e-06 -2.7824217908190868e-05 0.0000000000000000e+00  -2.2099443248804205e-06 -2.7352994718800786e-05 0.0000000000000000e+00  -2.1588789151102850e-06 -2.6925883639834888e-05 0.0000000000000000e+00  -2.0999010023233295e-06 -2.6533711014399523e-05 0.0000000000000000e+00  -2.0290905272047675e-06 -2.6180616626909418e-05 0.0000000000000000e+00  -1.9496669560432848e-06 -2.5858714886911660e-05 0.0000000000000000e+00  -1.8581028936594654e-06 -2.5570504766463783e-05 0.0000000000000000e+00  -1.7581193725441383e-06 -2.5309934242359124e-05 0.0000000000000000e+00  -1.6467566936695670e-06 -2.5078119297175738e-05 0.0000000000000000e+00  -1.5277926480879563e-06 -2.4870927988489008e-05 0.0000000000000000e+00  -1.3989076681400473e-06 -2.4688383355664821e-05 0.0000000000000000e+00  -1.2636164976016016e-06 -2.4528099672256650e-05 0.0000000000000000e+00  -1.1202484584208067e-06 -2.4389287615219564e-05 0.0000000000000000e+00  -9.7185645595640489e-07 -2.4271009547520349e-05 0.0000000000000000e+00  -8.1739667879014507e-07 -2.4171916108235583e-05 0.0000000000000000e+00  -6.5935840560080119e-07 -2.4092183987999741e-05 0.0000000000000000e+00  -4.9729626588598565e-07 -2.4030126202469182e-05 0.0000000000000000e+00  -3.3310038200376331e-07 -2.3986715195666603e-05 0.0000000000000000e+00  -1.6690423325314823e-07 -2.3960128438688685e-05 0.0000000000000000e+00  -4.3894027102333266e-19 -2.3951852999750771e-05 0.0000000000000000e+00  1.6690423325225117e-07 -2.3960128438688370e-05 0.0000000000000000e+00  3.3310038200286498e-07 -2.3986715195665983e-05 0.0000000000000000e+00  4.9729626588505085e-07 -2.4030126202468284e-05 0.0000000000000000e+00  6.5935840559985103e-07 -2.4092183987998576e-05 0.0000000000000000e+00  8.1739667878915859e-07 -2.4171916108234089e-05 0.0000000000000000e+00  9.7185645595539946e-07 -2.4271009547518560e-05 0.0000000000000000e+00  1.1202484584197407e-06 -2.4389287615217538e-05 0.0000000000000000e+00  1.2636164976004903e-06 -2.4528099672254330e-05 0.0000000000000000e+00  1.3989076681388670e-06 -2.4688383355662320e-05 0.0000000000000000e+00  1.5277926480867379e-06 -2.4870927988486413e-05 0.0000000000000000e+00  1.6467566936682861e-06 -2.5078119297173031e-05 0.0000000000000000e+00  1.7581193725428275e-06 -2.5309934242356305e-05 0.0000000000000000e+00  1.8581028936580898e-06 -2.5570504766460838e-05 0.0000000000000000e+00  1.9496669560418719e-06 -2.5858714886908570e-05 0.0000000000000000e+00  2.0290905272032979e-06 -2.6180616626906244e-05 0.0000000000000000e+00  2.0999010023218416e-06 -2.6533711014396294e-05 0.0000000000000000e+00  2.1588789151087532e-06 -2.6925883639831598e-05 0.0000000000000000e+00  2.2099443248788772e-06 -2.7352994718797449e-05 0.0000000000000000e+00  2.2509108452971825e-06 -2.7824217908187398e-05 0.0000000000000000e+00  2.2857719937723731e-06 -2.8333611898633984e-05 0.0000000000000000e+00  2.3138612702707857e-06 -2.8890325744051686e-05 0.0000000000000000e+00  2.3387282952576958e-06 -2.9486606245615397e-05 0.0000000000000000e+00  2.3612004765083476e-06 -3.0128832176405385e-05 0.0000000000000000e+00  2.3833759510395327e-06 -3.0807050095439913e-05 0.0000000000000000e+00  2.4065380839818289e-06 -3.1518792736058904e-05 0.0000000000000000e+00  -2.8401273462039677e-06 -3.1502066846081937e-05 0.0000000000000000e+00  -2.7988312807562066e-06 -3.0790204480773813e-05 0.0000000000000000e+00  -2.7564593168126739e-06 -3.0109238970108515e-05 0.0000000000000000e+00  -2.7122851324705074e-06 -2.9470496847971291e-05 0.0000000000000000e+00  -2.6655720387890306e-06 -2.8871679585302161e-05 0.0000000000000000e+00  -2.6135647109774895e-06 -2.8320023683387787e-05 0.0000000000000000e+00  -2.5567925055585391e-06 -2.7808694700816738e-05 0.0000000000000000e+00  -2.4916728149566077e-06 -2.7343165944495526e-05 0.0000000000000000e+00  -2.4199545663079484e-06 -2.6915031404406737e-05 0.0000000000000000e+00  -2.3378968026816982e-06 -2.6528437302637817e-05 0.0000000000000000e+00  -2.2482485304779519e-06 -2.6175209428785538e-05 0.0000000000000000e+00  -2.1475056483285928e-06 -2.5858275438327899e-05 0.0000000000000000e+00  -2.0390031059266532e-06 -2.5570652238804735e-05 0.0000000000000000e+00  -1.9197022364410506e-06 -2.5314169498946849e-05 0.0000000000000000e+00  -1.7931181611188529e-06 -2.5083445022443596e-05 0.0000000000000000e+00  -1.6567882051880977e-06 -2.4879364391095690e-05 0.0000000000000000e+00  -1.5140874124222918e-06 -2.4698201845013824e-05 0.0000000000000000e+00  -1.3631615288525077e-06 -2.4540071190203555e-05 0.0000000000000000e+00  -1.2070289000309742e-06 -2.4402748345657419e-05 0.0000000000000000e+00  -1.0444325088407682e-06 -2.4285753400525162e-05 0.0000000000000000e+00  -8.7791002268544164e-07 -2.4188103563587552e-05 0.0000000000000000e+00  -7.0677388854239733e-07 -2.4108903843022006e-05 0.0000000000000000e+00  -5.3302624665466006e-07 -2.4048117160447184e-05 0.0000000000000000e+00  -3.5652308666267759e-07 -2.4004614175710533e-05 0.0000000000000000e+00  -1.7871916878239547e-07 -2.3979014453364966e-05 0.0000000000000000e+00  -5.3798360660826184e-19 -2.3970143460838335e-05 0.0000000000000000e+00  1.7871916878132773e-07 -2.3979014453364641e-05 0.0000000000000000e+00  3.5652308666158524e-07 -2.4004614175709919e-05 0.0000000000000000e+00  5.3302624665355997e-07 -2.4048117160446269e-05 0.0000000000000000e+00  7.0677388854126061e-07 -2.4108903843020847e-05 0.0000000000000000e+00  8.7791002268429254e-07 -2.4188103563586065e-05 0.0000000000000000e+00  1.0444325088395811e-06 -2.4285753400523377e-05 0.0000000000000000e+00  1.2070289000297669e-06 -2.4402748345655380e-05 0.0000000000000000e+00  1.3631615288512496e-06 -2.4540071190201245e-05 0.0000000000000000e+00  1.5140874124210062e-06 -2.4698201845011326e-05 0.0000000000000000e+00  1.6567882051867598e-06 -2.4879364391093085e-05 0.0000000000000000e+00  1.7931181611174900e-06 -2.5083445022440875e-05 0.0000000000000000e+00  1.9197022364396267e-06 -2.5314169498944000e-05 0.0000000000000000e+00  2.0390031059251951e-06 -2.5570652238801770e-05 0.0000000000000000e+00  2.1475056483270851e-06 -2.5858275438324796e-05 0.0000000000000000e+00  2.2482485304764179e-06 -2.6175209428782356e-05 0.0000000000000000e+00  2.3378968026801261e-06 -2.6528437302634589e-05 0.0000000000000000e+00  2.4199545663063700e-06 -2.6915031404403433e-05 0.0000000000000000e+00  2.4916728149549848e-06 -2.7343165944492165e-05 0.0000000000000000e+00  2.5567925055569030e-06 -2.7808694700813265e-05 0.0000000000000000e+00  2.6135647109758179e-06 -2.8320023683384243e-05 0.0000000000000000e+00  2.6655720387873526e-06 -2.8871679585298533e-05 0.0000000000000000e+00  2.7122851324688036e-06 -2.9470496847967663e-05 0.0000000000000000e+00  2.7564593168109786e-06 -3.0109238970104904e-05 0.0000000000000000e+00  2.7988312807545024e-06 -3.0790204480770242e-05 0.0000000000000000e+00  2.8401273462022821e-06 -3.1502066846078312e-05 0.0000000000000000e+00  -3.2791755085336866e-06 -3.1476223490947416e-05 0.0000000000000000e+00  -3.2156422425758646e-06 -3.0758548420957091e-05 0.0000000000000000e+00  -3.1535810753712442e-06 -3.0079599620317938e-05 0.0000000000000000e+00  -3.0890409954491644e-06 -2.9438648410394474e-05 0.0000000000000000e+00  -3.0202027847600586e-06 -2.8843930076341184e-05 0.0000000000000000e+00  -2.9473611739663109e-06 -2.8290655073478956e-05 0.0000000000000000e+00  -2.8673265986350708e-06 -2.7784442680691790e-05 0.0000000000000000e+00  -2.7817154881716384e-06 -2.7317858424994001e-05 0.0000000000000000e+00  -2.6869146820348467e-06 -2.6895116542600344e-05 0.0000000000000000e+00  -2.5854566438476801e-06 -2.6508099153049463e-05 0.0000000000000000e+00  -2.4738214995199517e-06 -2.6159969013490442e-05 0.0000000000000000e+00  -2.3551215125321241e-06 -2.5843188682578513e-05 0.0000000000000000e+00  -2.2262231004344694e-06 -2.5559998897052069e-05 0.0000000000000000e+00  -2.0904619396920457e-06 -2.5304122851205734e-05 0.0000000000000000e+00  -1.9452386196539700e-06 -2.5076977915937717e-05 0.0000000000000000e+00  -1.7938110167003749e-06 -2.4873811021976916e-05 0.0000000000000000e+00  -1.6341653054642215e-06 -2.4695322648250971e-05 0.0000000000000000e+00  -1.4692670591205918e-06 -2.4538269993282347e-05 0.0000000000000000e+00  -1.2976823426220515e-06 -2.4402757465360371e-05 0.0000000000000000e+00  -1.1219554413811547e-06 -2.4286874988017578e-05 0.0000000000000000e+00  -9.4120065746051862e-07 -2.4190266682393718e-05 0.0000000000000000e+00  -7.5747987124228000e-07 -2.4112097302609999e-05 0.0000000000000000e+00  -5.7042016715595080e-07 -2.4051702238128843e-05 0.0000000000000000e+00  -3.8158474626082258e-07 -2.4009039194381874e-05 0.0000000000000000e+00  -1.9108765748754343e-07 -2.3983304655070974e-05 0.0000000000000000e+00  -6.2153043376803810e-19 -2.3974976549079524e-05 0.0000000000000000e+00  1.9108765748628704e-07 -2.3983304655070642e-05 0.0000000000000000e+00  3.8158474625956733e-07 -2.4009039194381251e-05 0.0000000000000000e+00  5.7042016715466691e-07 -2.4051702238127908e-05 0.0000000000000000e+00  7.5747987124098022e-07 -2.4112097302608837e-05 0.0000000000000000e+00  9.4120065745919068e-07 -2.4190266682392248e-05 0.0000000000000000e+00  1.1219554413798185e-06 -2.4286874988015800e-05 0.0000000000000000e+00  1.2976823426206812e-06 -2.4402757465358345e-05 0.0000000000000000e+00  1.4692670591192094e-06 -2.4538269993280037e-05 0.0000000000000000e+00  1.6341653054628025e-06 -2.4695322648248471e-05 0.0000000000000000e+00  1.7938110166989407e-06 -2.4873811021974304e-05 0.0000000000000000e+00  1.9452386196524831e-06 -2.5076977915934979e-05 0.0000000000000000e+00  2.0904619396905290e-06 -2.5304122851202854e-05 0.0000000000000000e+00  2.2262231004329125e-06 -2.5559998897049108e-05 0.0000000000000000e+00  2.3551215125305499e-06 -2.5843188682575396e-05 0.0000000000000000e+00  2.4738214995183368e-06 -2.6159969013487254e-05 0.0000000000000000e+00  2.5854566438460474e-06 -2.6508099153046235e-05 0.0000000000000000e+00  2.6869146820331776e-06 -2.6895116542597034e-05 0.0000000000000000e+00  2.7817154881699608e-06 -2.7317858424990602e-05 0.0000000000000000e+00  2.8673265986333610e-06 -2.7784442680688300e-05 0.0000000000000000e+00  2.9473611739645961e-06 -2.8290655073475392e-05 0.0000000000000000e+00  3.0202027847583167e-06 -2.8843930076337546e-05 0.0000000000000000e+00  3.0890409954474334e-06 -2.9438648410390845e-05 0.0000000000000000e+00  3.1535810753694997e-06 -3.0079599620314343e-05 0.0000000000000000e+00  3.2156422425741404e-06 -3.0758548420953520e-05 0.0000000000000000e+00  3.2791755085319536e-06 -3.1476223490943798e-05 0.0000000000000000e+00  -3.7187427820303137e-06 -3.1435694791801647e-05 0.0000000000000000e+00  -3.6369857637123477e-06 -3.0716915346058263e-05 0.0000000000000000e+00  -3.5538262639537831e-06 -3.0034350377500458e-05 0.0000000000000000e+00  -3.4686435562151914e-06 -2.9396439281575438e-05 0.0000000000000000e+00  -3.3798778148629053e-06 -2.8800216255332938e-05 0.0000000000000000e+00  -3.2848345097590974e-06 -2.8251515424935501e-05 0.0000000000000000e+00  -3.1848871259781346e-06 -2.7744413054198593e-05 0.0000000000000000e+00  -3.0765303021868209e-06 -2.7283020045696009e-05 0.0000000000000000e+00  -2.9622629101451886e-06 -2.6859825592119661e-05 0.0000000000000000e+00  -2.8384904933459005e-06 -2.6477984333652332e-05 0.0000000000000000e+00  -2.7082961703136472e-06 -2.6129802477038311e-05 0.0000000000000000e+00  -2.5683954281686720e-06 -2.5817734321678293e-05 0.0000000000000000e+00  -2.4220901582346702e-06 -2.5534834572664693e-05 0.0000000000000000e+00  -2.2666072854823561e-06 -2.5282937315444623e-05 0.0000000000000000e+00  -2.1051764746626163e-06 -2.5056342927201191e-05 0.0000000000000000e+00  -1.9356106580088850e-06 -2.4856304658657836e-05 0.0000000000000000e+00  -1.7608613927415429e-06 -2.4678537065291169e-05 0.0000000000000000e+00  -1.5793257726828512e-06 -2.4523759381703893e-05 0.0000000000000000e+00  -1.3935549379884682e-06 -2.4389045924736144e-05 0.0000000000000000e+00  -1.2024906206776463e-06 -2.4274654444075878e-05 0.0000000000000000e+00  -1.0082284551305482e-06 -2.4178831656560138e-05 0.0000000000000000e+00  -8.1020541946314931e-07 -2.4101478383727659e-05 0.0000000000000000e+00  -6.1005149083630103e-07 -2.4041761881410214e-05 0.0000000000000000e+00  -4.0765730460551394e-07 -2.3999364038399582e-05 0.0000000000000000e+00  -2.0420026277185204e-07 -2.3974102911367925e-05 0.0000000000000000e+00  -7.0663869692380609e-19 -2.3965612763702248e-05 0.0000000000000000e+00  2.0420026277044736e-07 -2.3974102911367593e-05 0.0000000000000000e+00  4.0765730460408622e-07 -2.3999364038398952e-05 0.0000000000000000e+00  6.1005149083487018e-07 -2.4041761881409286e-05 0.0000000000000000e+00  8.1020541946168468e-07 -2.4101478383726487e-05 0.0000000000000000e+00  1.0082284551290708e-06 -2.4178831656558674e-05 0.0000000000000000e+00  1.2024906206761459e-06 -2.4274654444074127e-05 0.0000000000000000e+00  1.3935549379869664e-06 -2.4389045924734122e-05 0.0000000000000000e+00  1.5793257726813251e-06 -2.4523759381701610e-05 0.0000000000000000e+00  1.7608613927400221e-06 -2.4678537065288695e-05 0.0000000000000000e+00  1.9356106580073227e-06 -2.4856304658655224e-05 0.0000000000000000e+00  2.1051764746610344e-06 -2.5056342927198450e-05 0.0000000000000000e+00  2.2666072854807379e-06 -2.5282937315441757e-05 0.0000000000000000e+00  2.4220901582330414e-06 -2.5534834572661731e-05 0.0000000000000000e+00  2.5683954281670084e-06 -2.5817734321675197e-05 0.0000000000000000e+00  2.7082961703119849e-06 -2.6129802477035113e-05 0.0000000000000000e+00  2.8384904933441890e-06 -2.6477984333649079e-05 0.0000000000000000e+00  2.9622629101434572e-06 -2.6859825592116344e-05 0.0000000000000000e+00  3.0765303021850641e-06 -2.7283020045692604e-05 0.0000000000000000e+00  3.1848871259763816e-06 -2.7744413054195113e-05 0.0000000000000000e+00  3.2848345097573114e-06 -2.8251515424931903e-05 0.0000000000000000e+00  3.3798778148611189e-06 -2.8800216255329293e-05 0.0000000000000000e+00  3.4686435562133999e-06 -2.9396439281571812e-05 0.0000000000000000e+00  3.5538262639520174e-06 -3.0034350377496843e-05 0.0000000000000000e+00  3.6369857637105745e-06 -3.0716915346054692e-05 0.0000000000000000e+00  3.7187427820285637e-06 -3.1435694791798022e-05 0.0000000000000000e+00  -4.1646332048581313e-06 -3.1385254829825615e-05 0.0000000000000000e+00  -4.0600964114639497e-06 -3.0659780315429309e-05 0.0000000000000000e+00  -3.9579070240355482e-06 -2.9978253743369649e-05 0.0000000000000000e+00  -3.8527607393344422e-06 -2.9338165198940867e-05 0.0000000000000000e+00  -3.7428514421062124e-06 -2.8745758481516042e-05 0.0000000000000000e+00  -3.6284869846850678e-06 -2.8196320039607333e-05 0.0000000000000000e+00  -3.5063293655008530e-06 -2.7694137709252397e-05 0.0000000000000000e+00  -3.3787924321973767e-06 -2.7232475634100268e-05 0.0000000000000000e+00  -3.2421519663618577e-06 -2.6814494581050886e-05 0.0000000000000000e+00  -3.0996159446976288e-06 -2.6432630366273523e-05 0.0000000000000000e+00  -2.9476637932192172e-06 -2.6089411396806077e-05 0.0000000000000000e+00  -2.7897390488193633e-06 -2.5777502743762816e-05 0.0000000000000000e+00  -2.6228195592802019e-06 -2.5498962288508648e-05 0.0000000000000000e+00  -2.4502470332375958e-06 -2.5247372160797724e-05 0.0000000000000000e+00  -2.2696117662659310e-06 -2.5024347796168560e-05 0.0000000000000000e+00  -2.0839414445705161e-06 -2.4824730559243825e-05 0.0000000000000000e+00  -1.8914444476992295e-06 -2.4649691428333365e-05 0.0000000000000000e+00  -1.6947208566860549e-06 -2.4495407983024949e-05 0.0000000000000000e+00  -1.4925468502712759e-06 -2.4362622500390341e-05 0.0000000000000000e+00  -1.2870550887518180e-06 -2.4248746939333985e-05 0.0000000000000000e+00  -1.0775206203888742e-06 -2.4154148744973176e-05 0.0000000000000000e+00  -8.6561589281289685e-07 -2.4077268358944143e-05 0.0000000000000000e+00  -6.5105131911192515e-07 -2.4018196601424396e-05 0.0000000000000000e+00 