<?xml version="1.0"?>
<VTKFile type="UnstructuredGrid"  version="0.1"  >
<UnstructuredGrid>
<Piece  NumberOfPoints="2601" NumberOfCells="5000">
<Points>
<DataArray  type="Float64"  NumberOfComponents="3"  format="ascii">0 0 0  0.0004 0 0  0.0008 0 0  0.0012 0 0  0.0016 0 0  0.002 0 0  0.0024 0 0  0.0028 0 0  0.0032 0 0  0.0036 0 0  0.004 0 0  0.0044 0 0  0.0048 0 0  0.0052 0 0  0.005600000000000001 0 0  0.006 0 0  0.0064 0 0  0.0068 0 0  0.0072 0 0  0.0076 0 0  0.008 0 0  0.008399999999999999 0 0  0.008800000000000001 0 0  0.0092 0 0  0.009599999999999999 0 0  0.01 0 0  0.0104 0 0  0.0108 0 0  0.0112 0 0  0.0116 0 0  0.012 0 0  0.0124 0 0  0.0128 0 0  0.0132 0 0  0.0136 0 0  0.014 0 0  0.0144 0 0  0.0148 0 0  0.0152 0 0  0.0156 0 0  0.016 0 0  0.0164 0 0  0.0168 0 0  0.0172 0 0  0.0176 0 0  0.018 0 0  0.0184 0 0  0.0188 0 0  0.0192 0 0  0.0196 0 0  0.02 0 0  0 0.00024 0  0.0004 0.00024 0  0.0008 0.00024 0  0.0012 0.00024 0  0.0016 0.00024 0  0.002 0.00024 0  0.0024 0.00024 0  0.0028 0.00024 0  0.0032 0.00024 0  0.0036 0.00024 0  0.004 0.00024 0  0.0044 0.00024 0  0.0048 0.00024 0  0.0052 0.00024 0  0.005600000000000001 0.00024 0  0.006 0.00024 0  0.0064 0.00024 0  0.0068 0.00024 0  0.0072 0.00024 0  0.0076 0.00024 0  0.008 0.00024 0  0.008399999999999999 0.00024 0  0.008800000000000001 0.00024 0  0.0092 0.00024 0  0.009599999999999999 0.00024 0  0.01 0.00024 0  0.0104 0.00024 0  0.0108 0.00024 0  0.0112 0.00024 0  0.0116 0.00024 0  0.012 0.00024 0  0.0124 0.00024 0  0.0128 0.00024 0  0.0132 0.00024 0  0.0136 0.00024 0  0.014 0.00024 0  0.0144 0.00024 0  0.0148 0.00024 0  0.0152 0.00024 0  0.0156 0.00024 0  0.016 0.00024 0  0.0164 0.00024 0  0.0168 0.00024 0  0.0172 0.00024 0  0.0176 0.00024 0  0.018 0.00024 0  0.0184 0.00024 0  0.0188 0.00024 0  0.0192 0.00024 0  0.0196 0.00024 0  0.02 0.00024 0  0 0.00048 0  0.0004 0.00048 0  0.0008 0.00048 0  0.0012 0.00048 0  0.0016 0.00048 0  0.002 0.00048 0  0.0024 0.00048 0  0.0028 0.00048 0  0.0032 0.00048 0  0.0036 0.00048 0  0.004 0.00048 0  0.0044 0.00048 0  0.0048 0.00048 0  0.0052 0.00048 0  0.005600000000000001 0.00048 0  0.006 0.00048 0  0.0064 0.00048 0  0.0068 0.00048 0  0.0072 0.00048 0  0.0076 0.00048 0  0.008 0.00048 0  0.008399999999999999 0.00048 0  0.008800000000000001 0.00048 0  0.0092 0.00048 0  0.009599999999999999 0.00048 0  0.01 0.00048 0  0.0104 0.00048 0  0.0108 0.00048 0  0.0112 0.00048 0  0.0116 0.00048 0  0.012 0.00048 0  0.0124 0.00048 0  0.0128 0.00048 0  0.0132 0.00048 0  0.0136 0.00048 0  0.014 0.00048 0  0.0144 0.00048 0  0.0148 0.00048 0  0.0152 0.00048 0  0.0156 0.00048 0  0.016 0.00048 0  0.0164 0.00048 0  0.0168 0.00048 0  0.0172 0.00048 0  0.0176 0.00048 0  0.018 0.00048 0  0.0184 0.00048 0  0.0188 0.00048 0  0.0192 0.00048 0  0.0196 0.00048 0  0.02 0.00048 0  0 0.00072 0  0.0004 0.00072 0  0.0008 0.00072 0  0.0012 0.00072 0  0.0016 0.00072 0  0.002 0.00072 0  0.0024 0.00072 0  0.0028 0.00072 0  0.0032 0.00072 0  0.0036 0.00072 0  0.004 0.00072 0  0.0044 0.00072 0  0.0048 0.00072 0  0.0052 0.00072 0  0.005600000000000001 0.00072 0  0.006 0.00072 0  0.0064 0.00072 0  0.0068 0.00072 0  0.0072 0.00072 0  0.0076 0.00072 0  0.008 0.00072 0  0.008399999999999999 0.00072 0  0.008800000000000001 0.00072 0  0.0092 0.00072 0  0.009599999999999999 0.00072 0  0.01 0.00072 0  0.0104 0.00072 0  0.0108 0.00072 0  0.0112 0.00072 0  0.0116 0.00072 0  0.012 0.00072 0  0.0124 0.00072 0  0.0128 0.00072 0  0.0132 0.00072 0  0.0136 0.00072 0  0.014 0.00072 0  0.0144 0.00072 0  0.0148 0.00072 0  0.0152 0.00072 0  0.0156 0.00072 0  0.016 0.00072 0  0.0164 0.00072 0  0.0168 0.00072 0  0.0172 0.00072 0  0.0176 0.00072 0  0.018 0.00072 0  0.0184 0.00072 0  0.0188 0.00072 0  0.0192 0.00072 0  0.0196 0.00072 0  0.02 0.00072 0  0 0.00096 0  0.0004 0.00096 0  0.0008 0.00096 0  0.0012 0.00096 0  0.0016 0.00096 0  0.002 0.00096 0  0.0024 0.00096 0  0.0028 0.00096 0  0.0032 0.00096 0  0.0036 0.00096 0  0.004 0.00096 0  0.0044 0.00096 0  0.0048 0.00096 0  0.0052 0.00096 0  0.005600000000000001 0.00096 0  0.006 0.00096 0  0.0064 0.00096 0  0.0068 0.00096 0  0.0072 0.00096 0  0.0076 0.00096 0  0.008 0.00096 0  0.008399999999999999 0.00096 0  0.008800000000000001 0.00096 0  0.0092 0.00096 0  0.009599999999999999 0.00096 0  0.01 0.00096 0  0.0104 0.00096 0  0.0108 0.00096 0  0.0112 0.00096 0  0.0116 0.00096 0  0.012 0.00096 0  0.0124 0.00096 0  0.0128 0.00096 0  0.0132 0.00096 0  0.0136 0.00096 0  0.014 0.00096 0  0.0144 0.00096 0  0.0148 0.00096 0  0.0152 0.00096 0  0.0156 0.00096 0  0.016 0.00096 0  0.0164 0.00096 0  0.0168 0.00096 0  0.0172 0.00096 0  0.0176 0.00096 0  0.018 0.00096 0  0.0184 0.00096 0  0.0188 0.00096 0  0.0192 0.00096 0  0.0196 0.00096 0  0.02 0.00096 0  0 0.0012 0  0.0004 0.0012 0  0.0008 0.0012 0  0.0012 0.0012 0  0.0016 0.0012 0  0.002 0.0012 0  0.0024 0.0012 0  0.0028 0.0012 0  0.0032 0.0012 0  0.0036 0.0012 0  0.004 0.0012 0  0.0044 0.0012 0  0.0048 0.0012 0  0.0052 0.0012 0  0.005600000000000001 0.0012 0  0.006 0.0012 0  0.0064 0.0012 0  0.0068 0.0012 0  0.0072 0.0012 0  0.0076 0.0012 0  0.008 0.0012 0  0.008399999999999999 0.0012 0  0.008800000000000001 0.0012 0  0.0092 0.0012 0  0.009599999999999999 0.0012 0  0.01 0.0012 0  0.0104 0.0012 0  0.0108 0.0012 0  0.0112 0.0012 0  0.0116 0.0012 0  0.012 0.0012 0  0.0124 0.0012 0  0.0128 0.0012 0  0.0132 0.0012 0  0.0136 0.0012 0  0.014 0.0012 0  0.0144 0.0012 0  0.0148 0.0012 0  0.0152 0.0012 0  0.0156 0.0012 0  0.016 0.0012 0  0.0164 0.0012 0  0.0168 0.0012 0  0.0172 0.0012 0  0.0176 0.0012 0  0.018 0.0012 0  0.0184 0.0012 0  0.0188 0.0012 0  0.0192 0.0012 0  0.0196 0.0012 0  0.02 0.0012 0  0 0.00144 0  0.0004 0.00144 0  0.0008 0.00144 0  0.0012 0.00144 0  0.0016 0.00144 0  0.002 0.00144 0  0.0024 0.00144 0  0.0028 0.00144 0  0.0032 0.00144 0  0.0036 0.00144 0  0.004 0.00144 0  0.0044 0.00144 0  0.0048 0.00144 0  0.0052 0.00144 0  0.005600000000000001 0.00144 0  0.006 0.00144 0  0.0064 0.00144 0  0.0068 0.00144 0  0.0072 0.00144 0  0.0076 0.00144 0  0.008 0.00144 0  0.008399999999999999 0.00144 0  0.008800000000000001 0.00144 0  0.0092 0.00144 0  0.009599999999999999 0.00144 0  0.01 0.00144 0  0.0104 0.00144 0  0.0108 0.00144 0  0.0112 0.00144 0  0.0116 0.00144 0  0.012 0.00144 0  0.0124 0.00144 0  0.0128 0.00144 0  0.0132 0.00144 0  0.0136 0.00144 0  0.014 0.00144 0  0.0144 0.00144 0  0.0148 0.00144 0  0.0152 0.00144 0  0.0156 0.00144 0  0.016 0.00144 0  0.0164 0.00144 0  0.0168 0.00144 0  0.0172 0.00144 0  0.0176 0.00144 0  0.018 0.00144 0  0.0184 0.00144 0  0.0188 0.00144 0  0.0192 0.00144 0  0.0196 0.00144 0  0.02 0.00144 0  0 0.00168 0  0.0004 0.00168 0  0.0008 0.00168 0  0.0012 0.00168 0  0.0016 0.00168 0  0.002 0.00168 0  0.0024 0.00168 0  0.0028 0.00168 0  0.0032 0.00168 0  0.0036 0.00168 0  0.004 0.00168 0  0.0044 0.00168 0  0.0048 0.00168 0  0.0052 0.00168 0  0.005600000000000001 0.00168 0  0.006 0.00168 0  0.0064 0.00168 0  0.0068 0.00168 0  0.0072 0.00168 0  0.0076 0.00168 0  0.008 0.00168 0  0.008399999999999999 0.00168 0  0.008800000000000001 0.00168 0  0.0092 0.00168 0  0.009599999999999999 0.00168 0  0.01 0.00168 0  0.0104 0.00168 0  0.0108 0.00168 0  0.0112 0.00168 0  0.0116 0.00168 0  0.012 0.00168 0  0.0124 0.00168 0  0.0128 0.00168 0  0.0132 0.00168 0  0.0136 0.00168 0  0.014 0.00168 0  0.0144 0.00168 0  0.0148 0.00168 0  0.0152 0.00168 0  0.0156 0.00168 0  0.016 0.00168 0  0.0164 0.00168 0  0.0168 0.00168 0  0.0172 0.00168 0  0.0176 0.00168 0  0.018 0.00168 0  0.0184 0.00168 0  0.0188 0.00168 0  0.0192 0.00168 0  0.0196 0.00168 0  0.02 0.00168 0  0 0.00192 0  0.0004 0.00192 0  0.0008 0.00192 0  0.0012 0.00192 0  0.0016 0.00192 0  0.002 0.00192 0  0.0024 0.00192 0  0.0028 0.00192 0  0.0032 0.00192 0  0.0036 0.00192 0  0.004 0.00192 0  0.0044 0.00192 0  0.0048 0.00192 0  0.0052 0.00192 0  0.005600000000000001 0.00192 0  0.006 0.00192 0  0.0064 0.00192 0  0.0068 0.00192 0  0.0072 0.00192 0  0.0076 0.00192 0  0.008 0.00192 0  0.008399999999999999 0.00192 0  0.008800000000000001 0.00192 0  0.0092 0.00192 0  0.009599999999999999 0.00192 0  0.01 0.00192 0  0.0104 0.00192 0  0.0108 0.00192 0  0.0112 0.00192 0  0.0116 0.00192 0  0.012 0.00192 0  0.0124 0.00192 0  0.0128 0.00192 0  0.0132 0.00192 0  0.0136 0.00192 0  0.014 0.00192 0  0.0144 0.00192 0  0.0148 0.00192 0  0.0152 0.00192 0  0.0156 0.00192 0  0.016 0.00192 0  0.0164 0.00192 0  0.0168 0.00192 0  0.0172 0.00192 0  0.0176 0.00192 0  0.018 0.00192 0  0.0184 0.00192 0  0.0188 0.00192 0  0.0192 0.00192 0  0.0196 0.00192 0  0.02 0.00192 0  0 0.00216 0  0.0004 0.00216 0  0.0008 0.00216 0  0.0012 0.00216 0  0.0016 0.00216 0  0.002 0.00216 0  0.0024 0.00216 0  0.0028 0.00216 0  0.0032 0.00216 0  0.0036 0.00216 0  0.004 0.00216 0  0.0044 0.00216 0  0.0048 0.00216 0  0.0052 0.00216 0  0.005600000000000001 0.00216 0  0.006 0.00216 0  0.0064 0.00216 0  0.0068 0.00216 0  0.0072 0.00216 0  0.0076 0.00216 0  0.008 0.00216 0  0.008399999999999999 0.00216 0  0.008800000000000001 0.00216 0  0.0092 0.00216 0  0.009599999999999999 0.00216 0  0.01 0.00216 0  0.0104 0.00216 0  0.0108 0.00216 0  0.0112 0.00216 0  0.0116 0.00216 0  0.012 0.00216 0  0.0124 0.00216 0  0.0128 0.00216 0  0.0132 0.00216 0  0.0136 0.00216 0  0.014 0.00216 0  0.0144 0.00216 0  0.0148 0.00216 0  0.0152 0.00216 0  0.0156 0.00216 0  0.016 0.00216 0  0.0164 0.00216 0  0.0168 0.00216 0  0.0172 0.00216 0  0.0176 0.00216 0  0.018 0.00216 0  0.0184 0.00216 0  0.0188 0.00216 0  0.0192 0.00216 0  0.0196 0.00216 0  0.02 0.00216 0  0 0.0024 0  0.0004 0.0024 0  0.0008 0.0024 0  0.0012 0.0024 0  0.0016 0.0024 0  0.002 0.0024 0  0.0024 0.0024 0  0.0028 0.0024 0  0.0032 0.0024 0  0.0036 0.0024 0  0.004 0.0024 0  0.0044 0.0024 0  0.0048 0.0024 0  0.0052 0.0024 0  0.005600000000000001 0.0024 0  0.006 0.0024 0  0.0064 0.0024 0  0.0068 0.0024 0  0.0072 0.0024 0  0.0076 0.0024 0  0.008 0.0024 0  0.008399999999999999 0.0024 0  0.008800000000000001 0.0024 0  0.0092 0.0024 0  0.009599999999999999 0.0024 0  0.01 0.0024 0  0.0104 0.0024 0  0.0108 0.0024 0  0.0112 0.0024 0  0.0116 0.0024 0  0.012 0.0024
[...]
<PointData  Scalars="VMS [Pa]"> 
<DataArray  type="Float64"  Name="VMS [Pa]"  format="ascii">8.6190533692537509e+06  4.2282815119349826e+06  7.5914668847397277e+06  7.7602266844536569e+06  9.2340381885773595e+06  3.6488346316922233e+06  1.3038767724186754e+07  3.7289246883794572e+06  2.1077931901731491e+07  1.3215794703431396e+07  3.1229724262741406e+07  2.5201163371687796e+07  4.1979978713667817e+07  3.7166504515617095e+07  5.2154824099952772e+07  4.7969176958702520e+07  6.1043805152225137e+07  5.7022058465414405e+07  6.8275912286544144e+07  6.4071750627769925e+07  7.3701077916396916e+07  6.9060153367831275e+07  7.7293483591055423e+07  7.2019716707040489e+07  7.9077404493181229e+07  7.2999206253694534e+07  7.9077404493174732e+07  7.2019716707019821e+07  7.7293483591042593e+07  6.9060153367827997e+07  7.3701077916380167e+07  6.4071750627740644e+07  6.8275912286517441e+07  5.7022058465358682e+07  6.1043805152189076e+07  4.7969176958670855e+07  5.2154824099930987e+07  3.7166504515597634e+07  4.1979978713643290e+07  2.5201163371656701e+07  3.1229724262717493e+07  1.3215794703412002e+07  2.1077931901716523e+07  3.7289246883716104e+06  1.3038767724175528e+07  3.6488346317006159e+06  9.2340381885711811e+06  7.7602266844703350e+06  7.5914668847407447e+06  4.2282815118933981e+06  8.6190533692434840e+06  3.0434934022149453e+06  7.0264282428784780e+06  8.1639830146348821e+06  7.8540022436548602e+06  8.4899168483486436e+06  1.0261577661198094e+07  1.0739950656700440e+07  1.5949657969809946e+07  1.8294660344363678e+07  2.4588820466507759e+07  2.7799592869436052e+07  3.4484512246542320e+07  3.7809563298887402e+07  4.4331091245108649e+07  4.7334030994933300e+07  5.3298431581230655e+07  5.5714873508053422e+07  6.0893817771623231e+07  6.2578898017025299e+07  6.6869059863005079e+07  6.7756132975579217e+07  7.1133594447693408e+07  7.1198309089234889e+07  7.3679422680691406e+07  7.2911918035720184e+07  7.4524729389106303e+07  7.2911918035714030e+07  7.3679422680681318e+07  7.1198309089215860e+07  7.1133594447684675e+07  6.7756132975569785e+07  6.6869059862986647e+07  6.2578898016997091e+07  6.0893817771597587e+07  5.5714873508036628e+07  5.3298431581205666e+07  4.7334030994909361e+07  4.4331091245081693e+07  3.7809563298858069e+07  3.4484512246517181e+07  2.7799592869421247e+07  2.4588820466490969e+07  1.8294660344344653e+07  1.5949657969798682e+07  1.0739950656701520e+07  1.0261577661188999e+07  8.4899168483627774e+06  7.8540022436553501e+06  8.1639830146483332e+06  7.0264282428886890e+06  3.0434934022247731e+06  8.2437677267926419e+06  6.7507008470622208e+06  6.7956515874369135e+06  9.5637204172296748e+06  8.7801928564398885e+06  1.1549944663817067e+07  1.4333274582514707e+07  1.8194133781630486e+07  2.2022225160057627e+07  2.6092378980250925e+07  3.0517831505038463e+07  3.4560687888381578e+07  3.9153874796654716e+07  4.2936106727892384e+07  4.7316783658745721e+07  5.0628648733047120e+07  5.4523110604731776e+07  5.7219996616572507e+07  6.0461463292009860e+07  6.2462619894144759e+07  6.4968315806065090e+07  6.6238080787624486e+07  6.7979840570075855e+07  6.8506224827995270e+07  6.9483890875328109e+07  6.9261784072004497e+07  6.9483890875322029e+07  6.8506224827990651e+07  6.7979840570060372e+07  6.6238080787615232e+07  6.4968315806061141e+07  6.2462619894136019e+07  6.0461463291996248e+07  5.7219996616563812e+07  5.4523110604710080e+07  5.0628648733026326e+07  4.7316783658718705e+07  4.2936106727851436e+07  3.9153874796631493e+07  3.4560687888362557e+07  3.0517831505012270e+07  2.6092378980240747e+07  2.2022225160038467e+07  1.8194133781601381e+07  1.4333274582504163e+07  1.1549944663808258e+07  8.7801928564346246e+06  9.5637204172290787e+06  6.7956515874372823e+06  6.7507008470312636e+06  8.2437677267941153e+06  6.8127475443324558e+06  7.0756590785117783e+06  9.3310534936821498e+06  7.4540423732080841e+06  1.1431893929196235e+07  1.3255134860393871e+07  1.7735132001607008e+07  2.1073838030288272e+07  2.5059776129360672e+07  2.8859266731321115e+07  3.2521262692765504e+07  3.6457112482711889e+07  3.9801838003841944e+07  4.3645832369570717e+07  4.6603039114125654e+07  5.0145894644053936e+07  5.2626927687157914e+07  5.5703680736024544e+07  5.7634758548508927e+07  6.0138367675804809e+07  6.1471503520301595e+07  6.3346152961063392e+07  6.4055301280847549e+07  6.5280376909727119e+07  6.5352214265623905e+07  6.5926008681139611e+07  6.5352214265622199e+07  6.5280376909717955e+07  6.4055301280835822e+07  6.3346152961051270e+07  6.1471503520304531e+07  6.0138367675802574e+07  5.7634758548503987e+07  5.5703680736020446e+07  5.2626927687152795e+07  5.0145894644031949e+07  4.6603039114098035e+07  4.3645832369547166e+07  3.9801838003830932e+07  3.6457112482704200e+07  3.2521262692745015e+07  2.8859266731297743e+07  2.5059776129345719e+07  2.1073838030274868e+07  1.7735132001598846e+07  1.3255134860384379e+07  1.1431893929195985e+07  7.4540423731975006e+06  9.3310534936883487e+06  7.0756590785217592e+06  6.8127475443293247e+06  7.3305368194395173e+06  8.6911521456055511e+06  6.7778806309374459e+06  1.1072630846909549e+07  1.1699418819807578e+07  1.6761797158390606e+07  2.0088470411626637e+07  2.4305959159035131e+07  2.7996455478801336e+07  3.1509017838522304e+07  3.5083685129510373e+07  3.8048280867489241e+07  4.1423759924523741e+07  4.3941696401887380e+07  4.7058110755117975e+07  4.9163551936943568e+07  5.1938076721715748e+07  5.3619595806781806e+07  5.5969627374354012e+07  5.7197857105259754e+07  5.9062182634301677e+07  5.9807790761468105e+07  6.1152073039235100e+07  6.1392372495249882e+07  6.2204165936698362e+07  6.1923290577893220e+07  6.2204165936694592e+07  6.1392372495238535e+07  6.1152073039231360e+07  5.9807790761455253e+07  5.9062182634298287e+07  5.7197857105270669e+07  5.5969627374355480e+07  5.3619595806796208e+07  5.1938076721715748e+07  4.9163551936922029e+07  4.7058110755107351e+07  4.3941696401884586e+07  4.1423759924515396e+07  3.8048280867492020e+07  3.5083685129492864e+07  3.1509017838486794e+07  2.7996455478786509e+07  2.4305959159025189e+07  2.0088470411625668e+07  1.6761797158379717e+07  1.1699418819782620e+07  1.1072630846899904e+07  6.7778806309325965e+06  8.6911521455716304e+06  7.3305368194481740e+06  9.5300080894056130e+06  6.5846470856028926e+06  1.0849345433473248e+07  1.0278180511965740e+07  1.5399539628133034e+07  1.8714969290653218e+07  2.3319635040257499e+07  2.7229985803685356e+07  3.0907971924494997e+07  3.4475694923445605e+07  3.7307688750002272e+07  4.0425849405772701e+07  4.2601560162678301e+07  4.5339902801863104e+07  4.7027150764469743e+07  4.9439134188472763e+07  5.0737884245836467e+07  5.2826812413896255e+07  5.3774900929242313e+07  5.5514400737607390e+07  5.6111579101594605e+07  5.7471472550786741e+07  5.7701537920139700e+07  5.8662095407037020e+07  5.8506529880553760e+07  5.9061754042746060e+07  5.8506529880546182e+07  5.8662095407029144e+07  5.7701537920141436e+07  5.7471472550782219e+07  5.6111579101589620e+07  5.5514400737610139e+07  5.3774900929243766e+07  5.2826812413904496e+07  5.0737884245839708e+07  4.9439134188463368e+07  4.7027150764465362e+07  4.5339902801849492e+07  4.2601560162663206e+07  4.0425849405766070e+07  3.7307688749990247e+07  3.4475694923417881e+07  3.0907971924475294e+07  2.7229985803672530e+07  2.3319635040250465e+07  1.8714969290651161e+07  1.5399539628117956e+07  1.0278180511939701e+07  1.0849345433469655e+07  6.5846470856075240e+06  9.5300080894046556e+06  6.1678418794994261e+06  1.0960441616048718e+07  8.9099785840655230e+06  1.4106435240109831e+07  1.7115832660982274e+07  2.1994291790934633e+07  2.6167855485240769e+07  3.0198545660289031e+07  3.4019956236084223e+07  3.6997138385644495e+07  4.0118716028682455e+07  4.2173323417445943e+07  4.4676143431762911e+07  4.6049615884534925e+07  4.8104121565125190e+07  4.9011910931927323e+07  5.0746687060045719e+07  5.1328794671505228e+07  5.2803215301544465e+07  5.3126649389556624e+07  5.4350969761972807e+07  5.4433383062252365e+07  5.5397992199527480e+07  5.5232673533922799e+07  5.5928258960668959e+07  5.5502183662091665e+07  5.5928258960666686e+07  5.5232673533920340e+07  5.5397992199517913e+07  5.4433383062241927e+07  5.4350969761975616e+07  5.3126649389563352e+07  5.2803215301556699e+07  5.1328794671526209e+07  5.0746687060047828e+07  4.9011910931922652e+07  4.8104121565117285e+07  4.6049615884523071e+07  4.4676143431754634e+07  4.2173323417448610e+07  4.0118716028674208e+07  3.6997138385620013e+07  3.4019956236062132e+07  3.0198545660280019e+07  2.6167855485239878e+07  2.1994291790931586e+07  1.7115832660946667e+07  1.4106435240084385e+07  8.9099785840358194e+06  1.0960441616030414e+07  6.1678418795003342e+06  1.1612479243727107e+07  6.9946767120759720e+06  1.3062745523087261e+07  1.5571962564214591e+07  2.0563006263972785e+07  2.4817325670625545e+07  2.9207143485181484e+07  3.3380319282903489e+07  3.6686328042486355e+07  4.0048167315888777e+07  4.2212763769689053e+07  4.4700359830764465e+07  4.5937118349661201e+07  4.7751926733952083e+07  4.8347505777689576e+07  4.9728195974417940e+07  4.9926789510934077e+07  5.1049481218329556e+07  5.1011973934296310e+07  5.1970232011865929e+07  5.1779147599216722e+07  5.2605669342753462e+07  5.2289831822623938e+07  5.2988063360272765e+07  5.2549174163796745e+07  5.3116687651818283e+07  5.2549174163796984e+07  5.2988063360271133e+07  5.2289831822614193e+07  5.2605669342748821e+07  5.1779147599218518e+07  5.1970232011878759e+07  5.1011973934323594e+07  5.1049481218353003e+07  4.9926789510947965e+07  4.9728195974415690e+07  4.8347505777683988e+07  4.7751926733944774e+07  4.5937118349655561e+07  4.4700359830766402e+07  4.2212763769685470e+07  4.0048167315873958e+07  3.6686328042467110e+07  3.3380319282892615e+07  2.9207143485183273e+07  2.4817325670622550e+07  2.0563006263940994e+07  1.5571962564171145e+07  1.3062745523056816e+07  6.9946767120642085e+06  1.1612479243713303e+07  5.5287746720545636e+06  1.3183427766159534e+07  1.3555524023653343e+07  1.9258771126673687e+07  2.3289558597074647e+07  2.8025034116127621e+07  3.2461224503123689e+07  3.6162336532105595e+07  3.9896827695515305e+07  4.2344921604762360e+07  4.5032182110526010e+07  4.6325427096494980e+07  4.8083982132575050e+07  4.8508770595589489e+07  4.9624853951902129e+07  4.9497647786388002e+07  5.0254127452079333e+07  4.9831279175886415e+07  5.0431523528684221e+07  4.9881068932708576e+07  5.0437366622583561e+07  4.9848804656418644e+07  5.0406304541532539e+07  4.9816415875858016e+07  5.0385685537978373e+07  4.9804916921654150e+07  5.0385685537982889e+07  4.9816415875859201e+07  5.0406304541530140e+07  4.9848804656413235e+07  5.0437366622589432e+07  4.9881068932730310e+07  5.0431523528704546e+07  4.9831279175919093e+07  5.0254127452101082e+07  4.9497647786391884e+07  4.9624853951906353e+07  4.8508770595590584e+07  4.8083982132567383e+07  4.6325427096492633e+07  4.5032182110530615e+07  4.2344921604763292e+07  3.9896827695503816e+07  3.6162336532094896e+07  3.2461224503133237e+07  2.8025034116121341e+07  2.3289558597038247e+07  1.9258771126638029e+07  1.3555524023611814e+07  1.3183427766151445e+07  5.5287746720624398e+06  1.2935620420541354e+07  9.9685558873650301e+06  1.8049947064025208e+07  2.1479006835625425e+07  2.6799588831689268e+07  3.1291776534923442e+07  3.5412498245258927e+07  3.9520069881337531e+07  4.2346540790777676e+07  4.5385363564513415e+07  4.6895964338435933e+07  4.8792065536565304e+07  4.9207605702921838e+07  5.0210719724101178e+07  4.9868882945248418e+07  5.0323140674578995e+07  4.9553145422523133e+07  4.9766291125477351e+07  4.8823360505350485e+07  4.9011144008133627e+07  4.8061684323909648e+07  4.8344337768037640e+07  4.7480801895315230e+07  4.7908330545960322e+07  4.7175055052864596e+07  4.7758636231270082e+07  4.7175055052879877e+07  4.7908330545965657e+07  4.7480801895315036e+07  4.8344337768041536e+07  4.8061684323922887e+07  4.9011144008154124e+07  4.8823360505374484e+07  4.9766291125508055e+07  4.9553145422552794e+07  5.0323140674581923e+07  4.9868882945258029e+07  5.0210719724106148e+07  4.9207605702915318e+07  4.8792065536571957e+07  4.6895964338442765e+07  4.5385363564516164e+07  4.2346540790771827e+07  3.9520069881328970e+07  3.5412498245257378e+07  3.1291776534914777e+07  2.6799588831653960e+07  2.1479006835584510e+07  1.8049947064004418e+07  9.9685558873443641e+06  1.2935620420525955e+07  7.4608089377702381e+06  1.6927547396936499e+07  1.8972587324902195e+07  2.5498967495131902e+07  2.9843751459168237e+07  3.4508967405189343e+07  3.8885412153499916e+07  4.2139418276312217e+07  4.5592678447566688e+07  4.7426806144739933e+07  4.9620104209954195e+07  5.0170320525597706e+07  5.1232601520879358e+07  5.0808545716735519e+07  5.1083147481969945e+07  5.0050516000034742e+07  4.9916664288331278e+07  4.8601934260471277e+07  4.8377040216641761e+07  4.7024867062359169e+07  4.6926615238602206e+07  4.5697544803141959e+07  4.5846311107713044e+07  4.4835504288200520e+07  4.5278636628896736e+07  4.4538909362504631e+07  4.5278636628902547e+07  4.4835504288209967e+07  4.5846311107713543e+07  4.5697544803143196e+07  4.6926615238616355e+07  4.7024867062383607e+07  4.8377040216667943e+07  4.8601934260504462e+07  4.9916664288366236e+07  5.0050516000046253e+07  5.1083147481975995e+07  5.0808545716739111e+07  5.1232601520871595e+07  5.0170320525600001e+07  4.9620104209967189e+07  4.7426806144746654e+07  4.5592678447562255e+07  4.2139418276302882e+07  3.8885412153502531e+07  3.4508967405168422e+07  2.9843751459122945e+07  2.5498967495103922e+07  1.8972587324870434e+07  1.6927547396910995e+07  7.4608089377650097e+06  1.5440334391495597e+07  1.4595485241152398e+07  2.4102462463193785e+07  2.7817391692970190e+07  3.3475722970713966e+07  3.7956594231187642e+07  4.1734193176838122e+07  4.5578623033752158e+07  4.7803581935800590e+07  5.0395023056193620e+07  5.1187705494142838e+07  5.2466136967790820e+07  5.2085388054300889e+07  5.2329275995162874e+07  5.1140770357545659e+07  5.0755028148751035e+07  4.9130846317820720e+07  4.8510591808148414e+07  4.6762135772631422e+07  4.6223244556243263e+07  4.4579378152295083e+07  4.4334368626304053e+07  4.2949876788554728e+07  4.3112210117005184e+07  4.2087529184023455e+07  4.2691575970719144e+07  4.2087529184032612e+07  4.3112210117014408e+07  4.2949876788557462e+07  4.4334368626306936e+07  4.4579378152313575e+07  4.6223244556269869e+07  4.6762135772666276e+07  4.8510591808180235e+07  4.9130846317854427e+07  5.0755028148757771e+07  5.1140770357542410e+07  5.2329275995168917e+07  5.2085388054299839e+07  5.2466136967788242e+07  5.1187705494149134e+07  5.0395023056195959e+07  4.7803581935791776e+07  4.5578623033747457e+07  4.1734193176830038e+07  3.7956594231151968e+07  3.3475722970672294e+07  2.7817391692944847e+07  2.4102462463170722e+07  1.4595485241128951e+07  1.5440334391478457e+07  1.2526833123620525e+07  2.2582022440121297e+07  2.4972773223418899e+07  3.2202427930301055e+07  3.6612812106185257e+07  4.1139912049557894e+07  4.5298365383331187e+07  4.7989363181636855e+07  5.1018121633077137e+07  5.2128095036083780e+07  5.3744086773408085e+07  5.3507778680939481e+07  5.3868114913612112e+07  5.2629351215852372e+07  5.2117173642744616e+07  5.0267318761765122e+07  4.9321586761349194e+07  4.7220832383796103e+07  4.6237520183917321e+07  4.4173850443080187e+07  4.3459998061270937e+07  4.1645726589346781e+07  4.1403290497549504e+07  3.9991606573584363e+07  4.0317617051083423e+07  3.9417645441161133e+07  4.0317617051092379e+07  3.9991606573593885e+07  4.1403290497556366e+07  4.1645726589349121e+07  4.3459998061288156e+07  4.4173850443106443e+07  4.6237520183947511e+07  4.7220832383826271e+07  4.9321586761378489e+07  5.0267318761778697e+07  5.2117173642752074e+07  5.2629351215851605e+07  5.3868114913611062e+07  5.3507778680943981e+07  5.3744086773411684e+07  5.2128095036080234e+07  5.1018121633074321e+07  4.7989363181631409e+07  4.5298365383329347e+07  4.1139912049527265e+07  3.6612812106150366e+07  3.2202427930281028e+07  2.4972773223380744e+07  2.2582022440098569e+07  1.2526833123630153e+07  2.0714979354774177e+07  2.0572473003151361e+07  3.0817574527328428e+07  3.4528270776704893e+07  4.0319848921173684e+07  4.4657511372362196e+07  4.7974694205284148e+07  5.1427674882140443e+07  5.2924909268613853e+07  5.4957379198314384e+07  5.4940764166418210e+07  5.5545004482445836e+07  5.4345588385975599e+07  5.3838978001549408e+07  5.1849627273044944e+07  5.0680639063114844e+07  4.8292209218110867e+07  4.6911116067554511e+07  4.4457982091572374e+07  4.3251322520428784e+07  4.0994223495794125e+07  4.0256140379042014e+07  3.8394929984572731e+07  3.8310207179796807e+07  3.7004039577887237e+07  3.7637231324402221e+07  3.7004039577903435e+07  3.8310207179810584e+07  3.8394929984587431e+07  4.0256140379047580e+07  4.0994223495819360e+07  4.3251322520455390e+07  4.4457982091597907e+07  4.6911116067589223e+07  4.8292209218137406e+07  5.0680639063120387e+07  5.1849627273053102e+07  5.3838978001551948e+07  5.4345588385973163e+07  5.5545004482455216e+07  5.4940764166421734e+07  5.4957379198311359e+07  5.2924909268615164e+07  5.1427674882153995e+07  4.7974694205277234e+07  4.4657511372316435e+07  4.0319848921137638e+07  3.4528270776687942e+07  3.0817574527298231e+07  2.0572473003136158e+07  2.0714979354773194e+07  1.9611569945099480e+07  2.9522588556708347e+07  3.1677548189651728e+07  3.9214317802841924e+07  4.3504646050754301e+07  4.7728599635070004e+07  5.1554240664056420e+07  5.3546092815818347e+07  5.6035526834462501e+07  5.6301844248621896e+07  5.7250883794563197e+07  5.6159735983590402e+07  5.5781871485081024e+07  5.3728091706878282e+07  5.2449952619692765e+07  4.9842153659125037e+07  4.8143858159708373e+07  4.5351132434113450e+07  4.3677240571717069e+07  4.0998987056967139e+07  3.9721392704007320e+07  3.7392312859383240e+07  3.6789584779189676e+07  3.5006588740234129e+07  3.5233586195056751e+07  3.4170503244985156e+07  3.5233586195068322e+07  3.5006588740258388e+07  3.6789584779208019e+07  3.7392312859391078e+07  3.9721392704021387e+07  4.0998987056996562e+07  4.3677240571736500e+07  4.5351132434142992e+07  4.8143858159739882e+07  4.9842153659135044e+07  5.2449952619698226e+07  5.3728091706884734e+07  5.5781871485071935e+07  5.6159735983593203e+07  5.7250883794572875e+07  5.6301844248626634e+07  5.6035526834467605e+07  5.3546092815820083e+07  5.1554240664056204e+07  4.7728599635038286e+07  4.3504646050718464e+07  3.9214317802816980e+07  3.1677548189608231e+07  2.9522588556679767e+07  1.9611569945101585e+07  2.8770162049569737e+07  2.7959500576434277e+07  3.8160505282662183e+07  4.1595234206875205e+07  4.7221508192488059e+07  5.1278412802740254e+07  5.3963722813602619e+07  5.6915012940174401e+07  5.7543849360286005e+07  5.8912490363825858e+07  5.7984420672779463e+07  5.7843061784318507e+07  5.5783114080644645e+07  5.4507664083038867e+07  5.1740391032656349e+07  4.9820542509246081e+07  4.6741935762058295e+07  4.4662128282676846e+07  4.1603622721697293e+07  3.9792334808167554e+07  3.7014153097304933e+07  3.5828137249020733e+07  3.3546183320071470e+07  3.3242876659972169e+07  3.1666494376450501e+07  3.2345107909976829e+07  3.1666494376459189e+07  3.3242876659988675e+07  3.3546183320091575e+07  3.5828137249031961e+07  3.7014153097317271e+07  3.9792334808190741e+07  4.1603622721720226e+07  4.4662128282708645e+07  4.6741935762085907e+07  4.9820542509250484e+07  5.1740391032657690e+07  5.4507664083036013e+07  5.5783114080641001e+07  5.7843061784326054e+07  5.7984420672790386e+07  5.8912490363824710e+07  5.7543849360287942e+07  5.6915012940189146e+07  5.3963722813592479e+07  5.1278412802698761e+07  4.7221508192466311e+07  4.1595234206860825e+07  3.8160505282626152e+07  2.7959500576414224e+07  2.8770162049560487e+07  2.8319493518410988e+07  3.7725196978431523e+07  3.9144174412405230e+07  4.6521166416764565e+07  5.0471392570654497e+07  5.4144383632149033e+07  5.7514289753517769e+07  5.8633481075921439e+07  6.0473092337870136e+07  5.9764911899974957e+07  5.9952444291264653e+07  5.7929633815177456e+07  5.6760325080856040e+07  5.387882553