<?xml version="1.0"?>
<VTKFile type="UnstructuredGrid"  version="0.1"  >
<UnstructuredGrid>
<Piece  NumberOfPoints="5042" NumberOfCells="9814">
<Points>
<DataArray  type="Float64"  NumberOfComponents="3"  format="ascii">0 0 0  0 0.012 0  0.02 0.012 0  0.02 0 0  0 0.0002399999999995596 0  0 0.0004799999999990798 0  0 0.0007199999999986036 0  0 0.0009599999999982128 0  0 0.001199999999997798 0  0 0.001439999999997451 0  0 0.001679999999996899 0  0 0.001919999999996208 0  0 0.002159999999995478 0  0 0.002399999999994887 0  0 0.002639999999994144 0  0 0.002879999999993544 0  0 0.003119999999992787 0  0 0.003359999999992186 0  0 0.003599999999991443 0  0 0.003839999999990853 0  0 0.004079999999990099 0  0 0.004319999999989343 0  0 0.004559999999988863 0  0 0.004799999999988168 0  0 0.00503999999998741 0  0 0.005279999999986652 0  0 0.005519999999986045 0  0 0.005759999999985477 0  0 0.00599999999998489 0  0 0.006239999999985699 0  0 0.006479999999986128 0  0 0.006719999999986353 0  0 0.006959999999987278 0  0 0.007199999999988255 0  0 0.007439999999988604 0  0 0.007679999999988715 0  0 0.007919999999989496 0  0 0.008159999999990475 0  0 0.008399999999991451 0  0 0.008639999999992428 0  0 0.008879999999992576 0  0 0.00911999999999182 0  0 0.00935999999999197 0  0 0.009599999999992948 0  0 0.009839999999993921 0  0 0.0100799999999949 0  0 0.01031999999999588 0  0 0.01055999999999685 0  0 0.01079999999999776 0  0 0.01103999999999727 0  0 0.01127999999999707 0  0 0.01151999999999805 0  0 0.01175999999999903 0  0.0002380952380947884 0.012 0  0.000476190476189585 0.012 0  0.0007142857142843371 0.012 0  0.0009523809523790612 0.012 0  0.001190476190473828 0.012 0  0.001428571428568669 0.012 0  0.001666666666663585 0.012 0  0.00190476190475845 0.012 0  0.002142857142853331 0.012 0  0.002380952380948226 0.012 0  0.002619047619042884 0.012 0  0.002857142857137328 0.012 0  0.003095238095231924 0.012 0  0.003333333333326469 0.012 0  0.003571428571421069 0.012 0  0.003809523809515577 0.012 0  0.0040476190476099 0.012 0  0.004285714285704363 0.012 0  0.004523809523799022 0.012 0  0.004761904761893679 0.012 0  0.004999999999988168 0.012 0  0.005238095238082656 0.012 0  0.005476190476177314 0.012 0  0.005714285714271973 0.012 0  0.005952380952366429 0.012 0  0.006190476190460674 0.012 0  0.006428571428555268 0.012 0  0.006666666666649926 0.012 0  0.006904761904744551 0.012 0  0.007142857142838951 0.012 0  0.00738095238093356 0.012 0  0.007619047619028219 0.012 0  0.007857142857122827 0.012 0  0.008095238095217089 0.012 0  0.008333333333311229 0.012 0  0.00857142857140537 0.012 0  0.008809523809500109 0.012 0  0.009047619047595282 0.012 0  0.009285714285690453 0.012 0  0.009523809523785304 0.012 0  0.009761904761879462 0.012 0  0.009999999999973941 0.012 0  0.01023809523806981 0.012 0  0.01047619047616602 0.012 0  0.01071428571426203 0.012 0  0.01095238095235735 0.012 0  0.01119047619045252 0.012 0  0.01142857142854813 0.012 0  0.01166666666664433 0.012 0  0.01190476190474054 0.012 0  0.01214285714283675 0.012 0  0.01238095238093295 0.012 0  0.01261904761902916 0.012 0  0.01285714285712483 0.012 0  0.01309523809522001 0.012 0  0.01333333333331529 0.012 0  0.01357142857141128 0.012 0  0.01380952380950748 0.012 0  0.01404761904760369 0.012 0  0.0142857142856999 0.012 0  0.0145238095237961 0.012 0  0.01476190476189164 0.012 0  0.01499999999998682 0.012 0  0.01523809523808199 0.012 0  0.01547619047617753 0.012 0  0.01571428571427374 0.012 0  0.01595238095236994 0.012 0  0.01619047619046615 0.012 0  0.01642857142856235 0.012 0  0.01666666666665855 0.012 0  0.01690476190475476 0.012 0  0.01714285714285096 0.012 0  0.01738095238094716 0.012 0  0.01761904761904337 0.012 0  0.01785714285713852 0.012 0  0.01809523809523265 0.012 0  0.01833333333332702 0.012 0  0.01857142857142277 0.012 0  0.01880952380951898 0.012 0  0.01904761904761518 0.012 0  0.01928571428571139 0.012 0  0.01952380952380759 0.012 0  0.0197619047619038 0.012 0  0.02 0.01175999999999921 0  0.02 0.01151999999999982 0  0.02 0.01128000000000058 0  0.02 0.01104000000000134 0  0.02 0.0108000000000021 0  0.02 0.01056000000000286 0  0.02 0.01032000000000362 0  0.02 0.01008000000000454 0  0.02 0.00984000000000684 0  0.02 0.009600000000007925 0  0.02 0.009360000000008683 0  0.02 0.00912000000000944 0  0.02 0.008880000000010199 0  0.02 0.008640000000010957 0  0.02 0.008400000000011714 0  0.02 0.008160000000011484 0  0.02 0.007920000000010507 0  0.02 0.007680000000010603 0  0.02 0.007440000000011084 0  0.02 0.00720000000001178 0  0.02 0.00696000000001254 0  0.02 0.0067200000000133 0  0.02 0.00648000000001391 0  0.02 0.006240000000014477 0  0.02 0.006000000000015067 0  0.02 0.005760000000014261 0  0.02 0.005520000000013832 0  0.02 0.005280000000013609 0  0.02 0.005040000000012686 0  0.02 0.004800000000011711 0  0.02 0.004560000000011364 0  0.02 0.004320000000011255 0  0.02 0.004080000000010475 0  0.02 0.003840000000009497 0  0.02 0.003600000000008525 0  0.02 0.00336000000000755 0  0.02 0.0031200000000074 0  0.02 0.002880000000008161 0  0.02 0.002640000000008011 0  0.02 0.002400000000007035 0  0.02 0.002160000000006062 0  0.02 0.001920000000005088 0  0.02 0.001680000000004112 0  0.02 0.00144000000000314 0  0.02 0.001200000000002232 0  0.02 0.0009600000000027208 0  0.02 0.0007200000000029232 0  0.02 0.0004800000000019476 0  0.02 0.0002400000000009738 0  0.01976190476190379 0 0  0.0195238095238076 0 0  0.01928571428571281 0 0  0.01904761904761866 0 0  0.01880952380952451 0 0  0.01857142857143036 0 0  0.01833333333333621 0 0  0.01809523809524206 0 0  0.01785714285714791 0 0  0.01761904761905376 0 0  0.01738095238095961 0 0  0.01714285714286546 0 0  0.01690476190477131 0 0  0.01666666666667694 0 0  0.01642857142858176 0 0  0.01619047619048657 0 0  0.01595238095239139 0 0  0.01571428571429621 0 0  0.0154761904762007 0 0  0.01523809523810551 0 0  0.01500000000001066 0 0  0.01476190476191651 0 0  0.01452380952382236 0 0  0.01428571428572822 0 0  0.01404761904763407 0 0  0.01380952380953992 0 0  0.01357142857144577 0 0  0.01333333333335162 0 0  0.01309523809525747 0 0  0.01285714285716308 0 0  0.01261904761906799 0 0  0.01238095238097281 0 0  0.01214285714287772 0 0  0.01190476190478333 0 0  0.01166666666668918 0 0  0.01142857142859503 0 0  0.01119047619050029 0 0  0.01095238095240511 0 0  0.01071428571430993 0 0  0.01047619047621507 0 0  0.0102380952381209 0 0  0.01000000000002641 0 0  0.009761904761930536 0 0  0.009523809523834321 0 0  0.0092857142857383 0 0  0.009047619047642974 0 0  0.008809523809547793 0 0  0.008571428571452176 0 0  0.008333333333355961 0 0  0.008095238095259746 0 0  0.00785714285716353 0 0  0.007619047619067313 0 0  0.0073809523809711 0 0  0.007142857142875417 0 0  0.006904761904780237 0 0  0.006666666666684943 0 0  0.006428571428588954 0 0  0.006190476190492738 0 0  0.005952380952396523 0 0  0.005714285714300309 0 0  0.005476190476204094 0 0  0.00523809523810854 0 0  0.00500000000001336 0 0  0.004761904761918179 0 0  0.004523809523822626 0 0  0.004285714285726411 0 0  0.004047619047630201 0 0  0.003809523809533987 0 0  0.003571428571437774 0 0  0.003333333333341564 0 0  0.00309523809524535 0 0  0.00285714285714914 0 0  0.002619047619052926 0 0  0.002380952380956713 0 0  0.002142857142861564 0 0  0.001904761904767415 0 0  0.001666666666673037 0 0  0.001428571428577278 0 0  0.001190476190481061 0 0  0.0009523809523848542 0 0  0.0007142857142886372 0 0  0.0004761904761924236 0 0  0.0002380952380962136 0 0  0.01318447728116931 0.0002054724756376096 0  0.00703571411504737 0.01179297346886515 0  0.009393957111202857 0.01178566829002903 0  0.01152411987223061 0.0002073705854719248 0  0.008209442714565999 0.0002293661341580651 0  0.006071428571444631 0.0002061965247114262 0  0.01252387159300391 0.01177721496147268 0  0.009864279959895488 0.0002092373795933997 0  0.01978984669846277 0.006132080769979573 0  0.0001918594623178119 0.006117810553728187 0  0.01418376177829061 0.01177611392099403 0  0.005373436206076422 0.01179331958565476 0  0.01085720811379693 0.01178395844817033 0  0.0146509645290248 0.0001956879809415279 0  0.0001755752538913103 0.00465949515529163 0  0.01978834567063831 0.004691789003433425 0  0.004631698329186475 0.0002047751934267602 0  0.01979087220358429 0.00756550010833225 0  0.0001995340756551599 0.007560008952131378 0  0.01558464754944247 0.01178986332668023 0  0.01605275139821281 0.0002042521088142625 0  0.003899937430954314 0.01178964579439611 0  0.00824045576413213 0.01179344211650992 0  0.0002078460969076221 0.003479999999991815 0  0.01978850594531548 0.003483415399629333 0  0.003424002220657234 0.0002053618445880372 0  0.01979254977368636 0.008765185815844821 0  0.0002079873092101698 0.008760161881310976 0  0.01678154229018126 0.01182442607549297 0  0.01727274415307985 0.0002248925371768773 0  0.002738095238090106 0.01179380347529011 0  0.01979215390309125 0.002520000000007523 0  0.0002078460969076217 0.002519999999994515 0  0.007262304885843406 0.0002024697694887917 0  0.00250000000000482 0.0002061965247109642 0  0.01979217402745079 0.009720102811022679 0  0.0002078532362884826 0.009719922724330445 0  0.01775621868387764 0.01178849440176412 0  0.0182169689601969 0.0001933026553644993 0  0.001788515484759992 0.01178939860996305 0  0.000200155249136635 0.001559925009654356 0  0.01978715651190513 0.001563831723424565 0  0.001569046683787388 0.0002108820145028341 0  0.01979217582511283 0.01068026059139825 0  0.0002081382544979005 0.01044048350356933 0  0.01979155267337484 0.006843404395469016 0  0.000187968684013261 0.005389055003690767 0  0.01979011858049167 0.005410500294388559 0  0.0001882816162553076 0.006828930252360772 0  0.009160250026290132 0.0002020789092408286 0  0.01082190557937627 0.0002015672655486539 0  0.01248354193408898 0.0002006047011554212 0  0.006330972935302184 0.01178523861319707 0  0.01175621854128248 0.01177775247620325 0  0.0139558814926981 0.0002048302144585014 0  0.01009626095885685 0.01177807292970702 0  0.01322663902696712 0.0
[...]
<PointData  Scalars="T [K]"> 
<DataArray  type="Float64"  Name="T [K]"  format="ascii">3.0000000000000006e+02  4.4999999999999989e+02  4.5000000000000000e+02  3.0000000000000000e+02  3.0259862842288032e+02  3.0521151712045361e+02  3.0783875456542262e+02  3.1048050904783150e+02  3.1313700811924889e+02  3.1580830203151714e+02  3.1849439623320023e+02  3.2119551840490141e+02  3.2391178504637179e+02  3.2664336499626478e+02  3.2939036290473211e+02  3.3215289047471811e+02  3.3493108613078635e+02  3.3772507952129808e+02  3.4053499989357880e+02  3.4336096411020009e+02  3.4620313604456743e+02  3.4906167052000961e+02  3.5193657449361245e+02  3.5482827325542615e+02  3.5773670608974987e+02  3.6066187248079780e+02  3.6360416246369294e+02  3.6656343375731001e+02  3.6954004984900831e+02  3.7253411328190901e+02  3.7554576955117949e+02  3.7857526031622450e+02  3.8162259419248466e+02  3.8468778982527084e+02  3.8777114555836266e+02  3.9087280990007343e+02  3.9399297488704252e+02  3.9713172076549580e+02  4.0028919631691150e+02  4.0346552929044969e+02  4.0666088166075855e+02  4.0987543801465750e+02  4.1310932489663918e+02  4.1636269910318202e+02  4.1963572544780538e+02  4.2292856314970396e+02  4.2624137246337233e+02  4.2957428511476610e+02  4.3292742576697731e+02  4.3630098873458655e+02  4.3969516774395220e+02  4.4311007489490117e+02  4.4654561269426614e+02  4.5000000000000000e+02  4.5000000000000000e+02  4.4999999999999994e+02  4.4999999999999994e+02  4.5000000000000000e+02  4.5000000000000000e+02  4.5000000000000000e+02  4.5000000000000006e+02  4.4999999999999994e+02  4.5000000000000006e+02  4.5000000000000000e+02  4.5000000000000000e+02  4.5000000000000000e+02  4.5000000000000000e+02  4.5000000000000000e+02  4.5000000000000000e+02  4.5000000000000000e+02  4.5000000000000006e+02  4.5000000000000000e+02  4.4999999999999994e+02  4.5000000000000006e+02  4.5000000000000006e+02  4.5000000000000000e+02  4.5000000000000006e+02  4.5000000000000000e+02  4.4999999999999994e+02  4.4999999999999994e+02  4.5000000000000000e+02  4.5000000000000000e+02  4.5000000000000006e+02  4.5000000000000000e+02  4.5000000000000006e+02  4.5000000000000000e+02  4.5000000000000000e+02  4.5000000000000006e+02  4.5000000000000000e+02  4.5000000000000000e+02  4.5000000000000000e+02  4.5000000000000006e+02  4.5000000000000000e+02  4.5000000000000006e+02  4.5000000000000000e+02  4.5000000000000000e+02  4.5000000000000006e+02  4.5000000000000006e+02  4.5000000000000000e+02  4.4999999999999994e+02  4.5000000000000000e+02  4.5000000000000000e+02  4.5000000000000000e+02  4.4999999999999994e+02  4.5000000000000000e+02  4.5000000000000000e+02  4.5000000000000000e+02  4.4999999999999994e+02  4.4999999999999994e+02  4.5000000000000000e+02  4.5000000000000000e+02  4.4999999999999994e+02  4.5000000000000000e+02  4.5000000000000006e+02  4.5000000000000000e+02  4.5000000000000000e+02  4.5000000000000000e+02  4.5000000000000006e+02  4.5000000000000000e+02  4.5000000000000000e+02  4.5000000000000006e+02  4.5000000000000000e+02  4.5000000000000006e+02  4.5000000000000000e+02  4.5000000000000006e+02  4.4999999999999994e+02  4.5000000000000000e+02  4.4999999999999994e+02  4.5000000000000000e+02  4.5000000000000006e+02  4.5000000000000000e+02  4.5000000000000000e+02  4.5000000000000000e+02  4.5000000000000000e+02  4.5000000000000006e+02  4.5000000000000006e+02  4.4654549399358933e+02  4.4310980355909101e+02  4.3969491044229233e+02  4.3630075335127145e+02  4.3292719559379452e+02  4.2957406413537274e+02  4.2624119457273702e+02  4.2292843144546936e+02  4.1963561906800936e+02  4.1636260459167863e+02  4.1310923059436692e+02  4.0987534600370901e+02  4.0666079636485557e+02  4.0346543843328459e+02  4.0028911023245843e+02  3.9713165966095363e+02  3.9399296047939629e+02  3.9087284583887072e+02  3.8777116849897499e+02  3.8468772403862789e+02  3.8162245116157959e+02  3.7857520377734659e+02  3.7554582020034587e+02  3.7253415473030316e+02  3.6954007435465513e+02  3.6656339827472704e+02  3.6360401677551079e+02  3.6066178519044729e+02  3.5773660393326440e+02  3.5482831045930305e+02  3.5193676285054312e+02  3.4906170353967815e+02  3.4620317058408943e+02  3.4336097214715778e+02  3.4053496823068014e+02  3.3772504258579380e+02  3.3493108813021922e+02  3.3215285718249743e+02  3.2939036524943344e+02  3.2664334421394454e+02  3.2391182125777817e+02  3.2119553250893540e+02  3.1849433611049608e+02  3.1580821812797620e+02  3.1313698621078902e+02  3.1048050422067115e+02  3.0783875003522320e+02  3.0521144475317914e+02  3.0259850180468760e+02  3.0000000000000000e+02  2.9999999999999994e+02  3.0000000000000000e+02  2.9999999999999994e+02  2.9999999999999994e+02  2.9999999999999994e+02  3.0000000000000000e+02  3.0000000000000000e+02  3.0000000000000000e+02  3.0000000000000000e+02  3.0000000000000000e+02  3.0000000000000006e+02  3.0000000000000000e+02  3.0000000000000006e+02  3.0000000000000000e+02  3.0000000000000006e+02  3.0000000000000006e+02  3.0000000000000000e+02  3.0000000000000000e+02  3.0000000000000000e+02  3.0000000000000000e+02  3.0000000000000000e+02  2.9999999999999994e+02  3.0000000000000000e+02  2.9999999999999994e+02  3.0000000000000006e+02  2.9999999999999994e+02  3.0000000000000000e+02  3.0000000000000000e+02  3.0000000000000006e+02  3.0000000000000000e+02  3.0000000000000000e+02  3.0000000000000000e+02  3.0000000000000006e+02  3.0000000000000006e+02  3.0000000000000000e+02  3.0000000000000000e+02  3.0000000000000000e+02  3.0000000000000000e+02  3.0000000000000000e+02  3.0000000000000000e+02  3.0000000000000000e+02  2.9999999999999994e+02  3.0000000000000006e+02  3.0000000000000000e+02  3.0000000000000000e+02  2.9999999999999994e+02  3.0000000000000000e+02  3.0000000000000000e+02  3.0000000000000000e+02  3.0000000000000006e+02  2.9999999999999994e+02  3.0000000000000000e+02  3.0000000000000000e+02  3.0000000000000000e+02  3.0000000000000000e+02  2.9999999999999994e+02  3.0000000000000006e+02  3.0000000000000000e+02  3.0000000000000000e+02  3.0000000000000006e+02  3.0000000000000000e+02  3.0000000000000000e+02  3.0000000000000000e+02  3.0000000000000000e+02  3.0000000000000000e+02  3.0000000000000000e+02  3.0000000000000006e+02  3.0000000000000000e+02  3.0000000000000000e+02  3.0000000000000000e+02  3.0000000000000000e+02  3.0000000000000000e+02  2.9999999999999994e+02  3.0000000000000000e+02  3.0000000000000000e+02  3.0000000000000000e+02  2.9999999999999994e+02  2.9999999999999994e+02  3.0000000000000000e+02  2.9999999999999994e+02  3.0000000000000006e+02  3.0000000000000000e+02  3.0222371718148247e+02  4.4701945830967679e+02  4.4691451633066094e+02  3.0224429286144544e+02  3.0248302723092166e+02  3.0223175854345129e+02  4.4679273183806151e+02  3.0226452082720658e+02  3.7118566493736148e+02  3.7100760552482558e+02  4.4677691331815606e+02  4.4702433960496336e+02  4.4688920321449336e+02  3.0211781987616939e+02  3.5313343030358095e+02  3.5352247015700101e+02  3.0221639224822616e+02  3.8939078591152986e+02  3.8931974641110651e+02  4.4697491444747993e+02  3.0221045966683755e+02  4.4697117060324831e+02  4.4702608112402987e+02  3.3912804617393181e+02  3.3916801057787677e+02  3.0222272250537611e+02  4.0512979696923389e+02  4.0506295331223680e+02  4.4747139968211889e+02  3.0243448747541896e+02  4.4703135154269722e+02  3.2801493375707037e+02  3.2801494173980228e+02  3.0219135320684666e+02  3.0223174145269235e+02  4.1799804652467162e+02  4.1799568862442089e+02  4.4695528842842771e+02  3.0209186310182582e+02  4.4696787503652109e+02  3.1714861779010727e+02  3.1719228223868816e+02  3.0228237999614140e+02  4.3125172576339588e+02  4.2791202595045343e+02  3.8013984056240702e+02  3.6199669106377053e+02  3.6225951226981960e+02  3.7995614722286115e+02  3.0218710870516293e+02  3.0218154727669025e+02  3.0217108496020001e+02  4.4690787157481805e+02  4.4680036220466786e+02  3.0221674201609801e+02  4.4680481929323469e+02  4.4689414741377459e+02  3.0209427535183613e+02  4.4696034483839151e+02  3.0228709882767686e+02  4.4703139858639997e+02  4.4696727903339382e+02  3.0215856787312663e+02  4.4691850741811442e+02  3.0915656656344521e+02  4.4695514184046618e+02  3.0931327717895203e+02  4.3799948012639356e+02  3.0229800493638578e+02  3.2262902536262396e+02  4.3799834841106144e+02  3.2255143203443879e+02  4.2458344803890583e+02  3.3354002415284236e+02  3.4478010062200548e+02  3.3353999491663808e+02  3.9870943332213460e+02  4.1149094741284341e+02  3.9879634357556171e+02  4.1150709983754058e+02  3.4476053033957550e+02  4.4703088012506237e+02  3.0229446748435811e+02  4.4690105321851001e+02  3.0223175809354336e+02  4.4703058815749262e+02  3.0223174952058179e+02  3.0216096523525579e+02  3.0223176029856103e+02  4.4703141124806143e+02  4.4703133033248190e+02  3.0229074369330391e+02  3.0223174680880493e+02  4.4694710663495948e+02  4.4694340220888307e+02  3.0221394297244780e+02  4.4693736275699661e+02  4.4714629886025301e+02  3.0217669732242859e+02  3.0229665280402753e+02  3.0219119054662877e+02  4.4691258259483749e+02  4.4475559625271427e+02  3.0400664026943321e+02  3.0397875035732505e+02  4.4480624980745768e+02  4.4140816485241555e+02  4.3973394128945040e+02  4.3631582509220254e+02  4.3803338143516538e+02  4.3463541797107320e+02  4.3634578773817248e+02  4.3296030733285494e+02  4.3466574168292090e+02  4.3129097455261757e+02  4.3299091051076391e+02  4.2962703816673780e+02  4.3132190522784992e+02  4.2797789203806178e+02  4.2965954664394701e+02  4.2631611116839770e+02  4.2800110437733809e+02  4.2467636844661325e+02  4.2634437335313754e+02  4.2303281371850159e+02  4.2466928394929255e+02  4.2138465165391108e+02  4.2305168372851620e+02  4.1975987566227110e+02  4.2141601506573005e+02  4.1812651807079686e+02  4.1975549963747579e+02  4.1649856731712572e+02  4.1815431414039585e+02  4.1488474706635333e+02  4.1656409511911221e+02  4.1327846115461347e+02  4.1492689937670315e+02  4.1166901442832227e+02  4.1332101475561092e+02  4.1006754507459095e+02  4.1172089151092348e+02  4.0846143525142787e+02  4.1010206489366067e+02  4.0687520293124533e+02  4.0850306513561111e+02  4.0528858721200282e+02  4.0691054550031828e+02  4.0370622448147077e+02  4.0532219359840445e+02  4.0213092994203504e+02  4.0373986485518788e+02  4.0056156367951888e+02  4.0213748274429952e+02  3.9898758347902771e+02  4.0055956495130459e+02  3.9741953919368211e+02  3.9901391431136915e+02  3.9586394709704956e+02  3.9745478464021795e+02  3.9431460970299992e+02  3.9589731730668825e+02  3.9276643182489869e+02  3.9434375089190138e+02  3.9121700794139616e+02  3.9279648942276214e+02  3.8968203235933515e+02  3.9125307527078439e+02  3.8814051555677418e+02  3.8814480246789213e+02  3.8967420634630724e+02  3.8660698740897146e+02  3.8813135708256891e+02  3.8508210236870042e+02  3.8661240729655458e+02  3.8356273499402545e+02  3.8508863911309965e+02  3.8204288010107308e+02  3.8356709108448729e+02  3.8052990417182747e+02  3.8204992193483565e+02  3.7901595328122670e+02  3.7902179269522918e+02  3.8056336427429324e+02  3.7752642490035237e+02  3.7908657627862999e+02  3.7602957475217073e+02  3.7755209909739602e+02  3.7453038393409804e+02  3.7605256530630453e+02  3.9585582042420418e+02  3.7303913346337652e+02  3.7455753290367159e+02  3.7155277148158490e+02  3.7304647608675458e+02  3.7154735028537004e+02  3.7006649890317789e+02  3.7157967835398063e+02  3.6859193915007194e+02  3.7010144027613990e+02  3.6711954498845392e+02  3.6860091421243965e+02  3.7158372573937839e+02  3.7008390693143633e+02  3.6712305476460716e+02  3.6860369366214093e+02  3.7159460067214928e+02  3.7011129007954474e+02  3.6713306695224691e+02  3.6861501767008559e+02  3.7164544780383761e+02  3.7010860052147484e+02  3.6713911893560584e+02  3.6862029232357236e+02  3.7162799104924295e+02  3.7012776602721516e+02  3.6714765017892131e+02  3.6862988990786704e+02  3.7162581490000076e+02  3.7013675718927351e+02  3.6715549651883231e+02  3.6863768827632288e+02  3.7161955736395720e+02  3.7011539484866142e+02  3.6715801617749599e+02  3.6863955713657771e+02  3.7160294180796643e+02  3.7012614226991735e+02  3.6716485307856578e+02  3.6864748000487367e+02  3.7163604237427865e+02  3.7015456438072516e+02  3.6717635209080902e+02  3.6865999953495214e+02  3.7162817144641883e+02  3.7014415299381398e+02  3.6718102210145469e+02  3.6866267757625104e+02  3.7165154178864270e+02  3.7016894663030229e+02  3.6718837871553205e+02  3.6869296000953329e+02  3.7166299640581235e+02  3.6571720681891270e+02  3.6721953228627399e+02  3.6424493166517675e+02  3.6573806460189775e+02  3.6278333564195430e+02  3.7911221017770038e+02  3.6425591984283892e+02  3.6132163945764756e+02  3.5985728170421697e+02  3.5840581756061363e+02  4.0369119000250134e+02  3.5695549341107898e+02  3.5986496332814465e+02  3.5695808652387529e+02  3.5841296595973586e+02  3.5551429380453988e+02  3.8662219212092521e+02  3.5696521152003351e+02  3.5407463324760664e+02  3.5552063193541909e+02  3.5263779050763441e+02  3.5120086210397898e+02  3.4977324549624495e+02  3.6563896405966142e+02  3.5842994503370261e+02  3.4834379149086891e+02  3.5696880205544409e+02  3.5989124207508536e+02  3.9276316757402759e+02  3.4692491937378691e+02  3.4550345923212683e+02  3.5842485040696039e+02  3.6135655006684465e+02  4.1005004769119114e+02  3.4409293950592593e+02  3.5988438706238929e+02  3.6283525816115491e+02  3.4267985209213316e+02  3.9899664565029474e+02  3.4127731780580388e+02  3.4268641861145824e+02  3.6134731206079397e+02  3.6430040694978385e+02  3.3987250461485314e+02  3.3987867791909980e+02  3.4128377483821703e+02  3.6281976725970986e+02  3.6576634429035130e+02  3.3848378710631471e+02  3.3988509991827931e+02  3.6725767626260193e+02  3.6873076272644300e+02  3.7021558910175980e+02  3.7170695604448798e+02  3.7320837819754723e+02  3.7470325108230463e+02  3.7621899650972068e+02  3.7772068240433958e+02  3.7923215303491691e+02  3.8074915983548550e+02  3.8226753862335005e+02  3.8379795795159691e+02  3.8532419927726482e+02  3.8686482349940900e+02  3.8839950786414755e+02  3.8994958513053177e+02  3.9149244092242566e+02  3.9305033538262956e+02  3.9460307713786466e+02  3.9616976896878776e+02  3.9773598028949306e+02  3.9931334008299643e+02  3.9616198679775448e+02  3.9930347650595570e+02  3.9772466791415894e+02  4.0087013464185947e+02  3.9929057077961716e+02  4.0244466137912173e+02  4.0086394349172554e+02  4.0402465224406347e+02  4.0244183147082555e+02  3.3709269878685575e+02  3.3848740078563901e+02  3.9461447791266625e+02  3.7621732330862920e+02  3.6429520723256866e+02  4.0531885713138195e+02  4.0560936112213074e+02  4.0401953227072403e+02  4.0564757332481719e+02  3.3570589900125179e+02  3.3709593822755812e+02  4.0719769507853141e+02  4.0560055951204015e+02  3.3431729155263361e+02  3.3432237170308508e+02  3.3570811553006143e+02  4.1652114251222167e+02  4.0879018662339251e+02  4.0718914903918039e+02  3.3294149585927511e+02  3.3432430617709525e+02  4.1038769521449558e+02  4.0878216738150445e+02  4.0559725695195453e+02  4.0718412217381837e+02  4.1038045805540116e+02  4.0877453074448493e+02  4.0559178908385979e+02  4.0717705069418480e+02  4.1038457699515550e+02  4.0879398291213158e+02  4.0558904539383849e+02  4.0717517841466491e+02  4.1040435543926930e+02  4.0879327307211997e+02  4.0558406069803374e+02  4.0716977266966921e+02  4.1039036450530398e+02  4.0876048070978760e+02  4.0557336158132404e+02  4.0715821430370346e+02  4.1037818838762058e+02  4.0877796574462928e+02  4.0557009966239343e+02  4.0715638603552139e+02  4.1041368491263603e+02  4.0877993083865113e+02  4.0556603651004764e+02  4.0715200645641085e+02  4.1040007951673056e+02  4.0877320588335681e+02  4.0556025356269794e+02  4.0714601561253369e+02  4.1033165759790421e+02  4.0875684896335798e+02  4.0555177735722452e+02  4.0713539071311021e+02  4.1038280067973375e+02  4.0875909617596324e+02  4.0554482916667939e+02  4.0713258724632158e+02  4.1035286924461224e+02  4.0872417820525703e+02  3.3156519379582983e+02  3.3294387015196594e+02  3.3569903188903987e+02  4.1192782933427145e+02  4.1031419299791298e+02  4.1170981751042302e+02  3.4127067133366671e+02  3.3847189339550107e+02  3.3986563410630407e+02  3.3707554569807814e+02  3.3846494097607683e+02  3.3568285954450454e+02  3.3706838354733998e+02  3.3429480407774957e+02  3.3567601913630335e+02  3.3291079227060084e+02  3.3428781447705006e+02  3.3153710734370009e+02  3.3153065218660822e+02  3.3290387202458726e+02  3.3015479715752508e+02  3.3152403714629594e+02  3.3428080530822899e+02  3.3289704587594355e+02  3.3566151921499198e+02  3.3427374992870995e+02  3.3150279523039484e+02  3.3287934687563211e+02  3.3565136578180346e+02  3.3426376390732253e+02  3.3148510691328585e+02  3.3286980952797722e+02  3.3564270256173023e+02  3.3425576270155875e+02  3.3147719326545871e+02  3.3286217045774566e+02  3.3563499451381307e+02  3.3424809776378078e+02  3.3148578413132293e+02  3.3286556454197074e+02  3.3562956833697012e+02  3.3424250020832517e+02  3.3147213156876364e+02  3.3284865268825382e+02  3.3561992542087182e+02  3.3423271886256532e+02  3.3145404447523970e+02  3.3283866692619324e+02  3.3561118768586238e+02  3.3422413997418789e+02  3.3144552267734781e+02  3.3283021531004607e+02  3.3560281058200383e+02  3.3421578491078316e+02  3.3143722930926634e+02  3.3282207451748656e+02  4.1199814547965877e+02  3.3559443568122884e+02  3.3420741091239023e+02  3.3145103015520618e+02  3.3282566348054229e+02  3.3558795664196413e+02  3.3420123448614203e+02  3.3144659932425515e+02  3.3281818866266690e+02  3.3557993340609801e+02  3.3419296372825772e+02  3.3696233244703308e+02  3.3557137629484419e+02  3.3834853266346096e+02  3.3695362546347047e+02  3.3418437772365212e+02  3.3556268607758778e+02  3.3833972443418997e+02  3.3694480790856431e+02  3.3972971311915887e+02  3.3833084871826878e+02  3.4112363488155080e+02  3.3972087655823930e+02  3.3693595403906659e+02  3.3832208361296722e+02  3.4111495461073707e+02  3.3971211288646555e+02  3.4251307916139234e+02  3.4110613675487923e+02  3.4391530168916478e+02  3.4250416061806703e+02  3.4532160523755380e+02  3.4390636074847305e+02  3.4109515476574893e+02  3.4249370154772384e+02  3.4531295828864489e+02  3.4389689554025716e+02  3.4672410333717255e+02  3.4530409123690998e+02  3.4248462236484050e+02  3.4388776392991070e+02  3.4671559893167478e+02  3.4529478760803181e+02  3.4813138420547097e+02  3.4670608447060221e+02  3.4955120015403054e+02  3.4812195829775675e+02  3.4528458913557779e+02  3.4669627083236333e+02  3.4954240988072490e+02  3.4811222778984455e+02  3.5096690344196065e+02  3.4953269232837772e+02  3.5239587368464140e+02  3.4668584125642593e+02  3.4810242820742002e+02  3.4526342616363411e+02  3.4667608171718069e+02  3.4384480336396990e+02  3.4525362831962804e+02  3.4243014792883832e+02  3.4383470594959419e+02  3.4666705993204050e+02  3.4101946633858836e+02  3.3962279700539352e+02  3.3822027469766067e+02  3.4242026139167064e+02  3.3683177493285939e+02  3.3543740282204925e+02  3.3554501950118970e+02  3.3405695827149344e+02  3.3267070331620749e+02  3.3129827859931885e+02  3.2991998151406955e+02  3.3128825761882422e+02  3.3019359218922631e+02  3.3156798229577214e+02  3.2881921286186537e+02  4.1355573793571767e+02  4.1192027906682358e+02  4.0395226595530164e+02  3.2882571498431713e+02  3.2854535805499086e+02  3.2990979480410340e+02  3.2855568537558844e+02  3.9772221746770123e+02  3.4674073637614839e+02  4.1513810935507883e+02  4.1354971465307358e+02  4.1031410857460082e+02  4.1191279238160149e+02  4.1515598783703518e+02  4.1352037010080926e+02  4.0870795142809334e+02  3.3019970120430816e+02  3.2992970088573685e+02  3.5383815393912198e+02  3.5527540164098116e+02  3.5672601972891124e+02  3.5817144119910552e+02  3.5963035876381451e+02  3.6108407065894886e+02  3.6255137544259975e+02  3.6401347950469312e+02  3.6254196608900918e+02  3.6548015868948363e+02  3.6400407597756237e+02  3.6695123004379707e+02  3.6547063937975474e+02  3.6842668735750794e+02  3.6694167579141299e+02  3.6990685267820146e+02  3.6842327625054548e+02  3.7139282192929227e+02  3.6990104148845995e+02  3.7288255043876484e+02  3.7138935810429183e+02  3.7437728751638724e+02  3.728732313067850