<?xml version="1.0"?>
<VTKFile type="UnstructuredGrid"  version="0.1"  >
<UnstructuredGrid>
<Piece  NumberOfPoints="13994" NumberOfCells="27604">
<Points>
<DataArray  type="Float64"  NumberOfComponents="3"  format="ascii">0 0 0  0 0.002 0  0 0.012 0  0.02 0.012 0  0.02 0.002 0  0.02 0 0  0 0.00018991218723181 0  0 0.0003733069980565314 0  0 0.0005291058521180011 0  0 0.0006498368539013445 0  0 0.0007536755098046806 0  0 0.0008517785356707968 0  0 0.0009480373746127394 0  0 0.001043725399826676 0  0 0.001139352859843888 0  0 0.001234980319861256 0  0 0.001330607779878751 0  0 0.001426235239895836 0  0 0.001521862699913337 0  0 0.001617490159930668 0  0 0.001713117619947918 0  0 0.001808745079965419 0  0 0.00190437253998255 0  0 0.002099315255484767 0  0 0.00219863051096945 0  0 0.002297945766454132 0  0 0.002397261021938822 0  0 0.002496576277423643 0  0 0.002595891532908487 0  0 0.002695206788393201 0  0 0.002794522043877884 0  0 0.002893837299362567 0  0 0.002993152554847297 0  0 0.003092681927103184 0  0 0.003193251726535867 0  0 0.003297217623563905 0  0 0.003412055643439157 0  0 0.003556206383341719 0  0 0.00373832862847297 0  0 0.003934412277764292 0  0 0.004132269451364158 0  0 0.004330165071839649 0  0 0.004528060692314851 0  0 0.004725956312789485 0  0 0.004923851933264119 0  0 0.005121747553738754 0  0 0.005319643174213387 0  0 0.005517538794688026 0  0 0.005715434415163353 0  0 0.00591333003563883 0  0 0.006111225656113617 0  0 0.006309121276588279 0  0 0.006507016897063628 0  0 0.006704912517539083 0  0 0.006902808138013848 0  0 0.007100703758489355 0  0 0.007298599378965707 0  0 0.00749649499944143 0  0 0.007694390619917074 0  0 0.007892286240393405 0  0 0.008090181860869756 0  0 0.008288077481346107 0  0 0.008485973101822112 0  0 0.008683868722297605 0  0 0.008881764342773803 0  0 0.009079659963250154 0  0 0.009277555583726452 0  0 0.009475451204201943 0  0 0.009673346824677437 0  0 0.009871242445153522 0  0 0.01006909055712404 0  0 0.01026501958268966 0  0 0.01044620416271123 0  0 0.01058894488656577 0  0 0.0107031139712953 0  0 0.0108068497950327 0  0 0.01090734303176106 0  0 0.01100684744514782 0  0 0.01110616270063268 0  0 0.01120547795611743 0  0 0.0113047932116027 0  0 0.01140410846708803 0  0 0.01150342372257336 0  0 0.01160273897805869 0  0 0.01170205423354402 0  0 0.01180136948902934 0  0 0.01190068474451467 0  9.978975395281022e-05 0.012 0  0.0001995795079056199 0.012 0  0.0002993692618584289 0.012 0  0.0003991590158112439 0.012 0  0.0004989487697640555 0.012 0  0.0005987385237168579 0.012 0  0.0006985282776696451 0.012 0  0.0007983180316224271 0.012 0  0.000898107785575209 0.012 0  0.0009978975395279867 0.012 0  0.001097903761155907 0.012 0  0.00119897444176409 0.012 0  0.001303552401813303 0.012 0  0.001419441874278495 0.012 0  0.001565665351390316 0.012 0  0.001749734577628449 0.012 0  0.001946961243490195 0.012 0  0.002145776300130266 0.012 0  0.002344617406455583 0.012 0  0.002543458512780745 0.012 0  0.002742299619105691 0.012 0  0.002941140725430647 0.012 0  0.003139981831755724 0.012 0  0.003338822938080718 0.012 0  0.003537664044405765 0.012 0  0.003736505150730789 0.012 0  0.003935346257055665 0.012 0  0.004134187363380482 0.012 0  0.004333028469705492 0.012 0  0.004531869576030592 0.012 0  0.004730710682355693 0.012 0  0.004929551788680701 0.012 0  0.005128392895005586 0.012 0  0.005327234001330656 0.012 0  0.005526075107655759 0.012 0  0.00572491621398086 0.012 0  0.005923757320305807 0.012 0  0.006122598426630523 0.012 0  0.006321439532955485 0.012 0  0.006520280639280587 0.012 0  0.006719121745605689 0.012 0  0.006917962851930744 0.012 0  0.007116803958255627 0.012 0  0.007315645064580652 0.012 0  0.007514486170905753 0.012 0  0.007713327277230856 0.012 0  0.007912168383555849 0.012 0  0.008111009489880579 0.012 0  0.008309850596205249 0.012 0  0.00850869170252992 0.012 0  0.008707532808854836 0.012 0  0.008906373915180277 0.012 0  0.009105215021505809 0.012 0  0.009304056127831339 0.012 0  0.009502897234156595 0.012 0  0.009701738340481325 0.012 0  0.00990057944680612 0.012 0  0.01009942055313165 0.012 0  0.01029826165945792 0.012 0  0.01049710276578432 0.012 0  0.01069594387211056 0.012 0  0.01089478497843628 0.012 0  0.01109362608476181 0.012 0  0.01129246719108743 0.012 0  0.01149130829741358 0.012 0  0.01169014940373998 0.012 0  0.01188899051006637 0.012 0  0.01208783161639276 0.012 0  0.01228667272271916 0.012 0  0.01248551382904555 0.012 0  0.01268435493537189 0.012 0  0.0128831960416977 0.012 0  0.01308203714802323 0.012 0  0.01328087825434876 0.012 0  0.01347971936067482 0.012 0  0.01367856046700121 0.012 0  0.01387740157332761 0.012 0  0.014076242679654 0.012 0  0.0142750837859804 0.012 0  0.01447392489230679 0.012 0  0.01467276599863288 0.012 0  0.01487160710495845 0.012 0  0.01507044821128398 0.012 0  0.01526928931760951 0.012 0  0.01546813042393538 0.012 0  0.01566697153026177 0.012 0  0.01586581263658817 0.012 0  0.01606465374291456 0.012 0  0.01626349484924096 0.012 0  0.01646233595556735 0.012 0  0.01666117706189375 0.012 0  0.01686001816822014 0.012 0  0.01705885927454654 0.012 0  0.01725770038087293 0.012 0  0.01745654148719933 0.012 0  0.01765538259352572 0.012 0  0.01785422369985126 0.012 0  0.01805303875649182 0.012 0  0.01825026542235476 0.012 0  0.01843433464859586 0.012 0  0.0185805581257116 0.012 0  0.01869644759817871 0.012 0  0.01880102555822882 0.012 0  0.01890209623883762 0.012 0  0.01900210246046605 0.012 0  0.01910189221441937 0.012 0  0.01920168196837277 0.012 0  0.01930147172232618 0.012 0  0.01940126147627958 0.012 0  0.01950105123023298 0.012 0  0.01960084098418639 0.012 0  0.01970063073813979 0.012 0  0.0198004204920932 0.012 0  0.0199002102460466 0.012 0  0.02 0.01190068474451468 0  0.02 0.01180136948902936 0  0.02 0.01170205423354404 0  0.02 0.01160273897805911 0  0.02 0.01150342372257466 0  0.02 0.0114041084670902 0  0.02 0.01130479321160574 0  0.02 0.01120547795612128 0  0.02 0.01110616270063682 0  0.02 0.01100684744515223 0  0.02 0.01090734303176592 0  0.02 0.01080684979503809 0  0.02 0.0107031139713015 0  0.02 0.01058894488657366 0  0.02 0.01044620416272257 0  0.02 0.01026501958270403 0  0.02 0.0100690905571399 0  0.02 0.009871242445170739 0  0.02 0.009673346824695263 0  0.02 0.009475451204219894 0  0.02 0.009277555583745276 0  0.02 0.009079659963270658 0  0.02 0.008881764342796038 0  0.02 0.008683868722321421 0  0.02 0.008485973101846803 0  0.02 0.008288077481371333 0  0.02 0.008090181860895874 0  0.02 0.007892286240421254 0  0.02 0.007694390619946956 0  0.02 0.007496494999471631 0  0.02 0.007298599378996185 0  0.02 0.007100703758521427 0  0.02 0.006902808138045967 0  0.02 0.006704912517569632 0  0.02 0.00650701689709391 0  0.02 0.00630912127661829 0  0.02 0.006111225656141982 0  0.02 0.005913330035665646 0  0.02 0.005715434415189312 0  0.02 0.005517538794713476 0  0.02 0.005319643174237913 0  0.02 0.005121747553761661 0  0.02 0.004923851933285327 0  0.02 0.00472595631280901 0  0.02 0.004528060692333383 0  0.02 0.004330165071857877 0  0.02 0.004132269451381683 0  0.02 0.003934412277780621 0  0.02 0.003738328628487856 0  0.02 0.003556206383353586 0  0.02 0.003412055643447466 0  0.02 0.003297217623570428 0  0.02 0.003193251726541566 0  0.02 0.003092681927108373 0  0.02 0.002993152554852059 0  0.02 0.002893837299367244 0  0.02 0.002794522043882504 0  0.02 0.002695206788397242 0  0.02 0.002595891532911922 0  0.02 0.002496576277426601 0  0.02 0.002397261021941282 0  0.02 0.002297945766455962 0  0.02 0.002198630510970641 0  0.02 0.002099315255485321 0  0.02 0.001904372539982662 0  0.02 0.00180874507996562 0  0.02 0.001713117619948905 0  0.02 0.001617490159932045 0  0.02 0.001521862699915003 0  0.02 0.001426235239897792 0  0.02 0.001330607779880864 0  0.02 0.00123498031986434 0  0.02 0.001139352859847767 0  0.02 0.001043725399830725 0  0.02 0.0009480373746167511 0  0.02 0.0008517785356742583 0  0.02 0.0007536755098076359 0  0.02 0.0006498368539039022 0  0.02 0.0005291058521203294 0  0.02 0.0003733069980584446 0  0.02 0.0001899121872328039 0  0.01980198019801899 0 0  0.01960396039603798 0 0  0.01940594059405751 0 0  0.01920792079207809 0 0  0.01900990099009879 0 0  0.0188118811881195 0 0  0.01861386138614021 0 0  0.01841584158416092 0 0  0.01821782178218163 0 0  0.01801980198020233 0 0  0.01782178217822304 0 0  0.01762376237624375 0 0  0.01742574257426446 0 0  0.01722772277228516 0 0  0.01702970297030587 0 0  0.01683168316832658 0 0  0.01663366336634692 0 0  0.01643564356436677 0 0  0.01623762376238662 0 0  0.01603960396040647 0 0  0.01584158415842632 0 0  0.01564356435644616 0 0  0.01544554455446567 0 0  0.01524752475248552 0 0  0.0150495049505056 0 0  0.0148514851485262 0 0  0.01465346534654691 0 0  0.01445544554456762 0 0  0.01425742574258833 0 0  0.01405940594060903 0 0  0.01386138613862974 0 0  0.01366336633665045 0 0  0.01346534653467116 0 0  0.01326732673269186 0 0  0.01306930693071257 0 0  0.01287128712873307 0 0  0.01267326732675304 0 0  0.01247524752477289 0 0  0.01227722772279274 0 0  0.01207920792081283 0 0  0.01188118811883343 0 0  0.01168316831685414 0 0  0.01148514851487485 0 0  0.0112871287128953 0 0  0.01108910891091523 0 0  0.01089108910893508 0 0  0.01069306930695493 0 0  0.01049504950497506 0 0  0.01029702970299571 0 0  0.01009900990101629 0 0  0.009900990099036141 0 0  0.009702970297055254 0 0  0.009504950495074242 0 0  0.009306930693093381 0 0  0.009108910891113039 0 0  0.008910891089132891 0 0  0.00871287128715266 0 0  0.008514851485171908 0 0  0.008316831683190898 0 0  0.008118811881209886 0 0  0.007920792079228876 0 0  0.007722772277247866 0 0  0.007524752475266856 0 0  0.007326732673285883 0 0  0.007128712871305429 0 0  0.00693069306932528 0 0  0.006732673267345128 0 0  0.006534653465364517 0 0  0.006336633663383506 0 0  0.006138613861402497 0 0  0.005940594059421487 0 0  0.005742574257440475 0 0  0.005544554455459467 0 0  0.005346534653478721 0 0  0.005148514851498497 0 0  0.004950495049518343 0 0  0.00475247524
[...]
<PointData  Vectors="U [m]"> 
<DataArray  type="Float64"  Name="U [m]"  NumberOfComponents="3" format="ascii">5.7401232359297373e-06 -3.1390674454151178e-06 0.0000000000000000e+00  4.8664517945501921e-06 -3.0147726835521999e-06 0.0000000000000000e+00  0.0000000000000000e+00 0.0000000000000000e+00 0.0000000000000000e+00  1.1383351265404849e-05 0.0000000000000000e+00 0.0000000000000000e+00  6.5168974267829075e-06 -3.0147754620714054e-06 0.0000000000000000e+00  5.6432226021642990e-06 -3.1390718277011304e-06 0.0000000000000000e+00  5.6542968018496867e-06 -3.1381110809309210e-06 0.0000000000000000e+00  5.5712645844140024e-06 -3.1352701576688536e-06 0.0000000000000000e+00  5.5006540318154584e-06 -3.1312596725176517e-06 0.0000000000000000e+00  5.4459536477395099e-06 -3.1271051911531986e-06 0.0000000000000000e+00  5.3989646896326222e-06 -3.1227840044522491e-06 0.0000000000000000e+00  5.3546563872746378e-06 -3.1180592041965943e-06 0.0000000000000000e+00  5.3112957522836833e-06 -3.1128103011089586e-06 0.0000000000000000e+00  5.2683403789985915e-06 -3.1069897515409676e-06 0.0000000000000000e+00  5.2255975863613459e-06 -3.1005671004911026e-06 0.0000000000000000e+00  5.1830856605199127e-06 -3.0935355578854173e-06 0.0000000000000000e+00  5.1408567962197912e-06 -3.0858926603214778e-06 0.0000000000000000e+00  5.0989762857874332e-06 -3.0776297747332499e-06 0.0000000000000000e+00  5.0575254609667991e-06 -3.0687469569156719e-06 0.0000000000000000e+00  5.0166149167967639e-06 -3.0592296004793132e-06 0.0000000000000000e+00  4.9764183623564279e-06 -3.0490562085372778e-06 0.0000000000000000e+00  4.9372095279448909e-06 -3.0382028494963982e-06 0.0000000000000000e+00  4.8995556178898546e-06 -3.0265919417169870e-06 0.0000000000000000e+00  4.8338250523349880e-06 -3.0105743688926603e-06 0.0000000000000000e+00  4.7966833068708587e-06 -3.0076173958868523e-06 0.0000000000000000e+00  4.7576287318937596e-06 -3.0042564303120346e-06 0.0000000000000000e+00  4.7173401464051912e-06 -3.0004559485020265e-06 0.0000000000000000e+00  4.6761135784632558e-06 -2.9961555082597174e-06 0.0000000000000000e+00  4.6341271061333798e-06 -2.9913444601986927e-06 0.0000000000000000e+00  4.5915056531708110e-06 -2.9860005646349886e-06 0.0000000000000000e+00  4.5483306732642412e-06 -2.9801167202291755e-06 0.0000000000000000e+00  4.5046716778734272e-06 -2.9736821106817134e-06 0.0000000000000000e+00  4.4605797707481167e-06 -2.9666919708005289e-06 0.0000000000000000e+00  4.4160012780366260e-06 -2.9591266897836282e-06 0.0000000000000000e+00  4.3705942959808882e-06 -2.9509076422380624e-06 0.0000000000000000e+00  4.3233045755515861e-06 -2.9418022793415362e-06 0.0000000000000000e+00  4.2706912982064338e-06 -2.9310227235049197e-06 0.0000000000000000e+00  4.2041339814769783e-06 -2.9164169886838588e-06 0.0000000000000000e+00  4.1193071535904240e-06 -2.8962490721633474e-06 0.0000000000000000e+00  4.0271588350238897e-06 -2.8723922488405905e-06 0.0000000000000000e+00  3.9334120506353600e-06 -2.8460671064732984e-06 0.0000000000000000e+00  3.8389582780568271e-06 -2.8174729096360184e-06 0.0000000000000000e+00  3.7438892581821651e-06 -2.7866161459782648e-06 0.0000000000000000e+00  3.6482648104371100e-06 -2.7534981095526867e-06 0.0000000000000000e+00  3.5521361816144852e-06 -2.7181223130545089e-06 0.0000000000000000e+00  3.4555510272573387e-06 -2.6804899667069348e-06 0.0000000000000000e+00  3.3585517003474576e-06 -2.6406049326233949e-06 0.0000000000000000e+00  3.2611746331394326e-06 -2.5984688613451886e-06 0.0000000000000000e+00  3.1634545746084895e-06 -2.5540861269714042e-06 0.0000000000000000e+00  3.0654229441567923e-06 -2.5074586678160678e-06 0.0000000000000000e+00  2.9671067416596656e-06 -2.4585901937562102e-06 0.0000000000000000e+00  2.8685330948372452e-06 -2.4074833827141372e-06 0.0000000000000000e+00  2.7697271821755294e-06 -2.3541411076853494e-06 0.0000000000000000e+00  2.6707116464927100e-06 -2.2985682630377705e-06 0.0000000000000000e+00  2.5715076694000236e-06 -2.2407662835963374e-06 0.0000000000000000e+00  2.4721363405994000e-06 -2.1807396539784898e-06 0.0000000000000000e+00  2.3726164163462550e-06 -2.1184914042170190e-06 0.0000000000000000e+00  2.2729665903183186e-06 -2.0540255899142426e-06 0.0000000000000000e+00  2.1732040588978832e-06 -1.9873456093922226e-06 0.0000000000000000e+00  2.0733458998162766e-06 -1.9184557264575215e-06 0.0000000000000000e+00  1.9734078599299535e-06 -1.8473605026772202e-06 0.0000000000000000e+00  1.8734050089979250e-06 -1.7740634391043008e-06 0.0000000000000000e+00  1.7733525037361216e-06 -1.6985701687138198e-06 0.0000000000000000e+00  1.6732640242744013e-06 -1.6208850495002359e-06 0.0000000000000000e+00  1.5731532130202409e-06 -1.5410136036505156e-06 0.0000000000000000e+00  1.4730331224557325e-06 -1.4589615334775180e-06 0.0000000000000000e+00  1.3729158242621976e-06 -1.3747359076178384e-06 0.0000000000000000e+00  1.2728124187661164e-06 -1.2883417963971401e-06 0.0000000000000000e+00  1.1727343629451868e-06 -1.1997880047948206e-06 0.0000000000000000e+00  1.0726914365515160e-06 -1.1090809982949799e-06 0.0000000000000000e+00  9.7271686062317313e-07 -1.0162533365466495e-06 0.0000000000000000e+00  8.7376291694562636e-07 -9.2222268063785344e-07 0.0000000000000000e+00  7.8230666382246130e-07 -8.3341461075415154e-07 0.0000000000000000e+00  7.1029275017891852e-07 -7.6220121731267952e-07 0.0000000000000000e+00  6.5271782545443041e-07 -7.0445292518091883e-07 0.0000000000000000e+00  6.0042354371911526e-07 -6.5137611919476538e-07 0.0000000000000000e+00  5.4978128599914471e-07 -5.9940990294846605e-07 0.0000000000000000e+00  4.9965407000921847e-07 -5.4742486271310457e-07 0.0000000000000000e+00  4.4963827508729176e-07 -4.9501450629528831e-07 0.0000000000000000e+00  3.9963799315334618e-07 -4.4208189349192072e-07 0.0000000000000000e+00  3.4965222847127541e-07 -3.8862885226739943e-07 0.0000000000000000e+00  2.9967966313144616e-07 -3.3465708727507694e-07 0.0000000000000000e+00  2.4971861752749268e-07 -2.8016814216634974e-07 0.0000000000000000e+00  1.9976701648418094e-07 -2.2516345397758049e-07 0.0000000000000000e+00  1.4982233998808563e-07 -1.6964411268281959e-07 0.0000000000000000e+00  9.9881530696322462e-08 -1.1361081259858478e-07 0.0000000000000000e+00  4.9941490977108099e-08 -5.7063377055270631e-08 0.0000000000000000e+00  5.7596110535680627e-08 4.9919814539258602e-08 0.0000000000000000e+00  1.1519402997592576e-07 9.9318407407549635e-08 0.0000000000000000e+00  1.7279557307286873e-07 1.4819351614744221e-07 0.0000000000000000e+00  2.3040092091134437e-07 1.9654197724703420e-07 0.0000000000000000e+00  2.8800930055059561e-07 2.4436070559413026e-07 0.0000000000000000e+00  3.4561966478943586e-07 2.9164720020591885e-07 0.0000000000000000e+00  4.0323041819604347e-07 3.3839931808047313e-07 0.0000000000000000e+00  4.6084014281790600e-07 3.8461546687539868e-07 0.0000000000000000e+00  5.1844689650695923e-07 4.3029436617131133e-07 0.0000000000000000e+00  5.7604901803236969e-07 4.7543506439492659e-07 0.0000000000000000e+00  6.3376993864288115e-07 5.2013320713218783e-07 0.0000000000000000e+00  6.9209707128491221e-07 5.6475700208364023e-07 0.0000000000000000e+00  7.5243779400604482e-07 6.1034713641940550e-07 0.0000000000000000e+00  8.1929088486899419e-07 6.6017703603088798e-07 0.0000000000000000e+00  9.0361762204498655e-07 7.2201353794810622e-07 0.0000000000000000e+00  1.0097237737550437e-06 7.9821341349677211e-07 0.0000000000000000e+00  1.1233493147463388e-06 8.7783508186758131e-07 0.0000000000000000e+00  1.2378138799025541e-06 9.5598530071612789e-07 0.0000000000000000e+00  1.3522092573400600e-06 1.0320333400055316e-06 0.0000000000000000e+00  1.4665144435702006e-06 1.1059784083459224e-06 0.0000000000000000e+00  1.5807242361877828e-06 1.1778308461148880e-06 0.0000000000000000e+00  1.6948350580092117e-06 1.2476016396834362e-06 0.0000000000000000e+00  1.8088433872042072e-06 1.3153021479365747e-06 0.0000000000000000e+00  1.9227474661686543e-06 1.3809434074129584e-06 0.0000000000000000e+00  2.0365455546115482e-06 1.4445368526478586e-06 0.0000000000000000e+00  2.1502377662934543e-06 1.5060935050337586e-06 0.0000000000000000e+00  2.2638235786407694e-06 1.5656243033847599e-06 0.0000000000000000e+00  2.3773039815975767e-06 1.6231398050062370e-06 0.0000000000000000e+00  2.4906802339048623e-06 1.6786501907818500e-06 0.0000000000000000e+00  2.6039540946124130e-06 1.7321656993224115e-06 0.0000000000000000e+00  2.7171274919512181e-06 1.7836955794822886e-06 0.0000000000000000e+00  2.8302029045256330e-06 1.8332492000468702e-06 0.0000000000000000e+00  2.9431841323346217e-06 1.8808351601009557e-06 0.0000000000000000e+00  3.0560726798539455e-06 1.9264611902420462e-06 0.0000000000000000e+00  3.1688732306060334e-06 1.9701356061285942e-06 0.0000000000000000e+00  3.2815882084864367e-06 2.0118653514131267e-06 0.0000000000000000e+00  3.3942221294792103e-06 2.0516574315754691e-06 0.0000000000000000e+00  3.5067781518960407e-06 2.0895179692644406e-06 0.0000000000000000e+00  3.6192604330171200e-06 2.1254531054706130e-06 0.0000000000000000e+00  3.7316726626707979e-06 2.1594682506838191e-06 0.0000000000000000e+00  3.8440188103283644e-06 2.1915685568982752e-06 0.0000000000000000e+00  3.9563033101693338e-06 2.2217587636929429e-06 0.0000000000000000e+00  4.0685291872817344e-06 2.2500429258274193e-06 0.0000000000000000e+00  4.1807014605341104e-06 2.2764252625661300e-06 0.0000000000000000e+00  4.2928233976180383e-06 2.3009092018221798e-06 0.0000000000000000e+00  4.4048990982710174e-06 2.3234981856332443e-06 0.0000000000000000e+00  4.5169324023341760e-06 2.3441949869315221e-06 0.0000000000000000e+00  4.6289273040110553e-06 2.3630023311447729e-06 0.0000000000000000e+00  4.7408875147063798e-06 2.3799225483772451e-06 0.0000000000000000e+00  4.8528168746416338e-06 2.3949577301221931e-06 0.0000000000000000e+00  4.9647190843848209e-06 2.4081096558122841e-06 0.0000000000000000e+00  5.0765978184229440e-06 2.4193799275636735e-06 0.0000000000000000e+00  5.1884566959043742e-06 2.4287698889634728e-06 0.0000000000000000e+00  5.3002997898552753e-06 2.4362805457558938e-06 0.0000000000000000e+00  5.4121300307714320e-06 2.4419128265574006e-06 0.0000000000000000e+00  5.5239513414274361e-06 2.4456673225912773e-06 0.0000000000000000e+00  5.6357674678405668e-06 2.4475445061986069e-06 0.0000000000000000e+00  5.7475818572716320e-06 2.4475445466509502e-06 0.0000000000000000e+00  5.8593979046328490e-06 2.4456674777196809e-06 0.0000000000000000e+00  5.9712192074498342e-06 2.4419130192674292e-06 0.0000000000000000e+00  6.0830497058252483e-06 2.4362808576230133e-06 0.0000000000000000e+00  6.1948925742162756e-06 2.4287702856472590e-06 0.0000000000000000e+00  6.3067514835726483e-06 2.4193804079840374e-06 0.0000000000000000e+00  6.4186303787417490e-06 2.4081101817460673e-06 0.0000000000000000e+00  6.5305325858041709e-06 2.3949583028642329e-06 0.0000000000000000e+00  6.6424619675679323e-06 2.3799231883678119e-06 0.0000000000000000e+00  6.7544221995535291e-06 2.3630030324906113e-06 0.0000000000000000e+00  6.8664172705933298e-06 2.3441957426819817e-06 0.0000000000000000e+00  6.9784505126781340e-06 2.3234990599558004e-06 0.0000000000000000e+00  7.0905264517575503e-06 2.3009100883913750e-06 0.0000000000000000e+00  7.2026483512658142e-06 2.2764261415790912e-06 0.0000000000000000e+00  7.3148204339332835e-06 2.2500438400032783e-06 0.0000000000000000e+00  7.4270468670370671e-06 2.2217596475318557e-06 0.0000000000000000e+00  7.5393310077930671e-06 2.1915695503315560e-06 0.0000000000000000e+00  7.6516774545751664e-06 2.1594692700487467e-06 0.0000000000000000e+00  7.7640896693888733e-06 2.1254541981939704e-06 0.0000000000000000e+00  7.8765721983668308e-06 2.0895189230514524e-06 0.0000000000000000e+00  7.9891281953700104e-06 2.0516583970368895e-06 0.0000000000000000e+00  8.1017619793821935e-06 2.0118664206299840e-06 0.0000000000000000e+00  8.2144773559726140e-06 1.9701366478269604e-06 0.0000000000000000e+00  8.3272778532397365e-06 1.9264622109184311e-06 0.0000000000000000e+00  8.4401665240802684e-06 1.8808360221049021e-06 0.0000000000000000e+00  8.5531475693331359e-06 1.8332501409940085e-06 0.0000000000000000e+00  8.6662232539628000e-06 1.7836965061861855e-06 0.0000000000000000e+00  8.7793966838623228e-06 1.7321665313610947e-06 0.0000000000000000e+00  8.8926706397571444e-06 1.6786509991519297e-06 0.0000000000000000e+00  9.0060468768774660e-06 1.6231405538576387e-06 0.0000000000000000e+00  9.1195273878077146e-06 1.5656250394638306e-06 0.0000000000000000e+00  9.2331132480104951e-06 1.5060941695634425e-06 0.0000000000000000e+00  9.3468054344383455e-06 1.4445374860969039e-06 0.0000000000000000e+00  9.4606036103366921e-06 1.3809439923016207e-06 0.0000000000000000e+00  9.5745077249618390e-06 1.3153027008295817e-06 0.0000000000000000e+00  9.6885160853050838e-06 1.2476021323067824e-06 0.0000000000000000e+00  9.8026269040327922e-06 1.1778313064762236e-06 0.0000000000000000e+00  9.9168367643739579e-06 1.1059788397563499e-06 0.0000000000000000e+00  1.0031142111162300e-05 1.0320338194785624e-06 0.0000000000000000e+00  1.0145537243825909e-05 9.5598582751678537e-07 0.0000000000000000e+00  1.0260001922361291e-05 8.7783535863637927e-07 0.0000000000000000e+00  1.0373627469216082e-05 7.9821363487990741e-07 0.0000000000000000e+00  1.0479733699041117e-05 7.2201373494912486e-07 0.0000000000000000e+00  1.0564060317913049e-05 6.6017715764467517e-07 0.0000000000000000e+00  1.0630913461853782e-05 6.1034729212079932e-07 0.0000000000000000e+00  1.0691254195203862e-05 5.6475713947520733e-07 0.0000000000000000e+00  1.0749581331545242e-05 5.2013332337515997e-07 0.0000000000000000e+00  1.0807302249730881e-05 4.7543516627249978e-07 0.0000000000000000e+00  1.0864904371180338e-05 4.3029445449204333e-07 0.0000000000000000e+00  1.0922511124766792e-05 3.8461554239176199e-07 0.0000000000000000e+00  1.0980120848905601e-05 3.3839938147188702e-07 0.0000000000000000e+00  1.1037731603110043e-05 2.9164725263503138e-07 0.0000000000000000e+00  1.1095341965763069e-05 2.4436074778744265e-07 0.0000000000000000e+00  1.1152950345007725e-05 1.9654201019587930e-07 0.0000000000000000e+00  1.1210555692611930e-05 1.4819354029022844e-07 0.0000000000000000e+00  1.1268157235535027e-05 9.9318423171393532e-08 0.0000000000000000e+00  1.1325755154897457e-05 4.9919822288816294e-08 0.0000000000000000e+00  1.1333409766874027e-05 -5.7063377189520039e-08 0.0000000000000000e+00  1.1283469719538520e-05 -1.1361081311725437e-07 0.0000000000000000e+00  1.1233528902685728e-05 -1.6964411375937064e-07 0.0000000000000000e+00  1.1183584218824132e-05 -2.2516345578545664e-07 0.0000000000000000e+00  1.1133632610738669e-05 -2.8016814493379034e-07 0.0000000000000000e+00  1.1083671558496882e-05 -3.3465709129681786e-07 0.0000000000000000e+00  1.1033698986971722e-05 -3.8862885790733946e-07 0.0000000000000000e+00  1.0983713216587404e-05 -4.4208190117359518e-07 0.0000000000000000e+00  1.0933712929451531e-05 -4.9501451649754965e-07 0.0000000000000000e+00  1.0883697129839663e-05 -5.4742487596373044e-07 0.0000000000000000e+00  1.0833569909669342e-05 -5.9940991981411927e-07 0.0000000000000000e+00  1.0782927648256832e-05 -6.5137614031681793e-07 0.0000000000000000e+00  1.0730633363272560e-05 -7.0445295134128672e-07 0.0000000000000000e+00  1.0673058435668543e-05 -7.6220124976279972e-07 0.0000000000000000e+00  1.0601044519564959e-05 -8.3341465215956326e-07 0.0000000000000000e+00  1.0509588265420201e-05 -9.2222273496636139e-07 0.0000000000000000e+00  1.0410634327022537e-05 -1.0162534059816290e-06 0.0000000000000000e+00  1.0310659747949023e-05 -1.1090811025416553e-06 0.0000000000000000e+00  1.0210616802371291e-05 -1.1997881536426952e-06 0.0000000000000000e+00  1.0110538768752352e-05 -1.2883419745849284e-06 0.0000000000000000e+00  1.0010435378083729e-05 -1.3747361019902721e-06 0.0000000000000000e+00  9.9103180615484750e-06 -1.4589617783389885e-06 0.0000000000000000e+00  9.8101979726381838e-06 -1.5410138484650160e-06 0.0000000000000000e+00  9.7100871584318477e-06 -1.6208854129115650e-06 0.0000000000000000e+00  9.6099987033078503e-06 -1.6985705088014095e-06 0.0000000000000000e+00  9.5099461083395520e-06 -1.7740640217000974e-06 0.0000000000000000e+00  9.4099432757698689e-06 -1.8473610124849294e-06 0.0000000000000000e+00  9.3100052395562294e-06 -1.9184563205133624e-06 0.0000000000000000e+00  9.2101470679549177e-06 -1.9873462901707906e-06 0.0000000000000000e+00  9.1103845171035545e-06 -2.0540263523980928e-06 0.0000000000000000e+00  9.0107346501478378e-06 -2.1184922399598887e-06 0.0000000000000000e+00  8.9112145443346074e-06 -2.1807405701477273e-06 0.0000000000000000e+00  8.8118433388351291e-06 -2.2407673077267512e-06 0.0000000000000000e+00  8.7126392877555323e-06 -2.2985694041384042e-06 0.0000000000000000e+00  8.6136236767324124e-06 -2.3541422765874928e-06 0.0000000000000000e+00  8.5148176930176139e-06 -2.4074846732022999e-06 0.0000000000000000e+00  8.4162440620714243e-06 -2.4585914890396627e-06 0.0000000000000000e+00  8.3179279479763582e-06 -2.5074602338621878e-06 0.0000000000000000e+00  8.2198957367968052e-06 -2.5540877616297650e-06 0.0000000000000000e+00  8.1221757630583887e-06 -2.5984705436493369e-06 0.0000000000000000e+00  8.0247986333679522e-06 -2.6406066514258495e-06 0.0000000000000000e+00  7.9277991923988189e-06 -2.6804918121976619e-06 0.0000000000000000e+00  7.8312139364087004e-06 -2.7181242026875915e-06 0.0000000000000000e+00  7.7350852477504816e-06 -2.7535001665575217e-06 0.0000000000000000e+00  7.6394605319246656e-06 -2.7866181153642160e-06 0.0000000000000000e+00  7.5443913237408659e-06 -2.8174750721961931e-06 0.0000000000000000e+00  7.4499374138338308e-06 -2.8460690637941775e-06 0.0000000000000000e+00  7.3561905713030732e-06 -2.8723943875418867e-06 0.0000000000000000e+00  7.2640420543262632e-06 -2.8962512244741722e-06 0.0000000000000000e+00  7.1792151610609314e-06 -2.9164191111430962e-06 0.0000000000000000e+00  7.1126576974298970e-06 -2.9310248104229303e-06 0.0000000000000000e+00  7.0600443299811025e-06 -2.9418043114818347e-06 0.0000000000000000e+00  7.0127545428338451e-06 -2.9509096168140954e-06 0.0000000000000000e+00  6.9673475080585462e-06 -2.9591286006417483e-06 0.0000000000000000e+00  6.9227689600616065e-06 -2.9666938172144228e-06 0.0000000000000000e+00  6.8786770043110482e-06 -2.9736838169309266e-06 0.0000000000000000e+00  6.8350181836957217e-06 -2.9801182248346558e-06 0.0000000000000000e+00  6.7918435399575881e-06 -2.9860023481611289e-06 0.0000000000000000e+00  6.7492211638945840e-06 -2.9913458334818179e-06 0.0000000000000000e+00  6.7072354685061948e-06 -2.9961567954442034e-06 0.0000000000000000e+00  6.6660090332987157e-06 -3.0004574632501122e-06 0.0000000000000000e+00  6.6257206523498990e-06 -3.0042580663762295e-06 0.0000000000000000e+00  6.5866661672878190e-06 -3.0076193425309997e-06 0.0000000000000000e+00  6.5495243167060793e-06 -3.0105767456253151e-06 0.0000000000000000e+00  6.4837934675069947e-06 -3.0265949837113913e-06 0.0000000000000000e+00  6.4461393933961201e-06 -3.0382061342481679e-06 0.0000000000000000e+00  6.4069303840711886e-06 -3.0490597095809054e-06 0.0000000000000000e+00  6.3667336478797879e-06 -3.0592332792546575e-06 0.0000000000000000e+00  6.3258229132039419e-06 -3.0687507580568025e-06 0.0000000000000000e+00  6.2843719301659168e-06 -3.0776336759320351e-06 0.0000000000000000e+00  6.2424912414857419e-06 -3.0858966473468610e-06 0.0000000000000000e+00  6.2002622210899810e-06 -3.0935396174116302e-06 0.0000000000000000e+00  6.1577501316470893e-06 -3.1005712224391739e-06 0.0000000000000000e+00  6.1150071769461092e-06 -3.1069939225854211e-06 0.0000000000000000e+00  6.0720516444345738e-06 -3.1128145131293666e-06 0.0000000000000000e+00  6.0286908508726481e-06 -3.1180634516650737e-06 0.0000000000000000e+00  5.9843823876065345e-06 -3.1227882830537569e-06 0.0000000000000000e+00  5.9373932592928382e-06 -3.1271094978174170e-06 0.0000000000000000e+00  5.8826926769595627e-06 -3.1312640059574202e-06 0.0000000000000000e+00  5.8120818677338492e-06 -3.1352745167947369e-06 0.0000000000000000e+00  5.7290493478364976e-06 -3.1381154577380394e-06 0.000000