<?xml version="1.0"?>
<VTKFile type="UnstructuredGrid"  version="0.1"  >
<UnstructuredGrid>
<Piece  NumberOfPoints="13994" NumberOfCells="27604">
<Points>
<DataArray  type="Float64"  NumberOfComponents="3"  format="ascii">0 0 0  0 0.002 0  0 0.012 0  0.02 0.012 0  0.02 0.002 0  0.02 0 0  0 0.00018991218723181 0  0 0.0003733069980565314 0  0 0.0005291058521180011 0  0 0.0006498368539013445 0  0 0.0007536755098046806 0  0 0.0008517785356707968 0  0 0.0009480373746127394 0  0 0.001043725399826676 0  0 0.001139352859843888 0  0 0.001234980319861256 0  0 0.001330607779878751 0  0 0.001426235239895836 0  0 0.001521862699913337 0  0 0.001617490159930668 0  0 0.001713117619947918 0  0 0.001808745079965419 0  0 0.00190437253998255 0  0 0.002099315255484767 0  0 0.00219863051096945 0  0 0.002297945766454132 0  0 0.002397261021938822 0  0 0.002496576277423643 0  0 0.002595891532908487 0  0 0.002695206788393201 0  0 0.002794522043877884 0  0 0.002893837299362567 0  0 0.002993152554847297 0  0 0.003092681927103184 0  0 0.003193251726535867 0  0 0.003297217623563905 0  0 0.003412055643439157 0  0 0.003556206383341719 0  0 0.00373832862847297 0  0 0.003934412277764292 0  0 0.004132269451364158 0  0 0.004330165071839649 0  0 0.004528060692314851 0  0 0.004725956312789485 0  0 0.004923851933264119 0  0 0.005121747553738754 0  0 0.005319643174213387 0  0 0.005517538794688026 0  0 0.005715434415163353 0  0 0.00591333003563883 0  0 0.006111225656113617 0  0 0.006309121276588279 0  0 0.006507016897063628 0  0 0.006704912517539083 0  0 0.006902808138013848 0  0 0.007100703758489355 0  0 0.007298599378965707 0  0 0.00749649499944143 0  0 0.007694390619917074 0  0 0.007892286240393405 0  0 0.008090181860869756 0  0 0.008288077481346107 0  0 0.008485973101822112 0  0 0.008683868722297605 0  0 0.008881764342773803 0  0 0.009079659963250154 0  0 0.009277555583726452 0  0 0.009475451204201943 0  0 0.009673346824677437 0  0 0.009871242445153522 0  0 0.01006909055712404 0  0 0.01026501958268966 0  0 0.01044620416271123 0  0 0.01058894488656577 0  0 0.0107031139712953 0  0 0.0108068497950327 0  0 0.01090734303176106 0  0 0.01100684744514782 0  0 0.01110616270063268 0  0 0.01120547795611743 0  0 0.0113047932116027 0  0 0.01140410846708803 0  0 0.01150342372257336 0  0 0.01160273897805869 0  0 0.01170205423354402 0  0 0.01180136948902934 0  0 0.01190068474451467 0  9.978975395281022e-05 0.012 0  0.0001995795079056199 0.012 0  0.0002993692618584289 0.012 0  0.0003991590158112439 0.012 0  0.0004989487697640555 0.012 0  0.0005987385237168579 0.012 0  0.0006985282776696451 0.012 0  0.0007983180316224271 0.012 0  0.000898107785575209 0.012 0  0.0009978975395279867 0.012 0  0.001097903761155907 0.012 0  0.00119897444176409 0.012 0  0.001303552401813303 0.012 0  0.001419441874278495 0.012 0  0.001565665351390316 0.012 0  0.001749734577628449 0.012 0  0.001946961243490195 0.012 0  0.002145776300130266 0.012 0  0.002344617406455583 0.012 0  0.002543458512780745 0.012 0  0.002742299619105691 0.012 0  0.002941140725430647 0.012 0  0.003139981831755724 0.012 0  0.003338822938080718 0.012 0  0.003537664044405765 0.012 0  0.003736505150730789 0.012 0  0.003935346257055665 0.012 0  0.004134187363380482 0.012 0  0.004333028469705492 0.012 0  0.004531869576030592 0.012 0  0.004730710682355693 0.012 0  0.004929551788680701 0.012 0  0.005128392895005586 0.012 0  0.005327234001330656 0.012 0  0.005526075107655759 0.012 0  0.00572491621398086 0.012 0  0.005923757320305807 0.012 0  0.006122598426630523 0.012 0  0.006321439532955485 0.012 0  0.006520280639280587 0.012 0  0.006719121745605689 0.012 0  0.006917962851930744 0.012 0  0.007116803958255627 0.012 0  0.007315645064580652 0.012 0  0.007514486170905753 0.012 0  0.007713327277230856 0.012 0  0.007912168383555849 0.012 0  0.008111009489880579 0.012 0  0.008309850596205249 0.012 0  0.00850869170252992 0.012 0  0.008707532808854836 0.012 0  0.008906373915180277 0.012 0  0.009105215021505809 0.012 0  0.009304056127831339 0.012 0  0.009502897234156595 0.012 0  0.009701738340481325 0.012 0  0.00990057944680612 0.012 0  0.01009942055313165 0.012 0  0.01029826165945792 0.012 0  0.01049710276578432 0.012 0  0.01069594387211056 0.012 0  0.01089478497843628 0.012 0  0.01109362608476181 0.012 0  0.01129246719108743 0.012 0  0.01149130829741358 0.012 0  0.01169014940373998 0.012 0  0.01188899051006637 0.012 0  0.01208783161639276 0.012 0  0.01228667272271916 0.012 0  0.01248551382904555 0.012 0  0.01268435493537189 0.012 0  0.0128831960416977 0.012 0  0.01308203714802323 0.012 0  0.01328087825434876 0.012 0  0.01347971936067482 0.012 0  0.01367856046700121 0.012 0  0.01387740157332761 0.012 0  0.014076242679654 0.012 0  0.0142750837859804 0.012 0  0.01447392489230679 0.012 0  0.01467276599863288 0.012 0  0.01487160710495845 0.012 0  0.01507044821128398 0.012 0  0.01526928931760951 0.012 0  0.01546813042393538 0.012 0  0.01566697153026177 0.012 0  0.01586581263658817 0.012 0  0.01606465374291456 0.012 0  0.01626349484924096 0.012 0  0.01646233595556735 0.012 0  0.01666117706189375 0.012 0  0.01686001816822014 0.012 0  0.01705885927454654 0.012 0  0.01725770038087293 0.012 0  0.01745654148719933 0.012 0  0.01765538259352572 0.012 0  0.01785422369985126 0.012 0  0.01805303875649182 0.012 0  0.01825026542235476 0.012 0  0.01843433464859586 0.012 0  0.0185805581257116 0.012 0  0.01869644759817871 0.012 0  0.01880102555822882 0.012 0  0.01890209623883762 0.012 0  0.01900210246046605 0.012 0  0.01910189221441937 0.012 0  0.01920168196837277 0.012 0  0.01930147172232618 0.012 0  0.01940126147627958 0.012 0  0.01950105123023298 0.012 0  0.01960084098418639 0.012 0  0.01970063073813979 0.012 0  0.0198004204920932 0.012 0  0.0199002102460466 0.012 0  0.02 0.01190068474451468 0  0.02 0.01180136948902936 0  0.02 0.01170205423354404 0  0.02 0.01160273897805911 0  0.02 0.01150342372257466 0  0.02 0.0114041084670902 0  0.02 0.01130479321160574 0  0.02 0.01120547795612128 0  0.02 0.01110616270063682 0  0.02 0.01100684744515223 0  0.02 0.01090734303176592 0  0.02 0.01080684979503809 0  0.02 0.0107031139713015 0  0.02 0.01058894488657366 0  0.02 0.01044620416272257 0  0.02 0.01026501958270403 0  0.02 0.0100690905571399 0  0.02 0.009871242445170739 0  0.02 0.009673346824695263 0  0.02 0.009475451204219894 0  0.02 0.009277555583745276 0  0.02 0.009079659963270658 0  0.02 0.008881764342796038 0  0.02 0.008683868722321421 0  0.02 0.008485973101846803 0  0.02 0.008288077481371333 0  0.02 0.008090181860895874 0  0.02 0.007892286240421254 0  0.02 0.007694390619946956 0  0.02 0.007496494999471631 0  0.02 0.007298599378996185 0  0.02 0.007100703758521427 0  0.02 0.006902808138045967 0  0.02 0.006704912517569632 0  0.02 0.00650701689709391 0  0.02 0.00630912127661829 0  0.02 0.006111225656141982 0  0.02 0.005913330035665646 0  0.02 0.005715434415189312 0  0.02 0.005517538794713476 0  0.02 0.005319643174237913 0  0.02 0.005121747553761661 0  0.02 0.004923851933285327 0  0.02 0.00472595631280901 0  0.02 0.004528060692333383 0  0.02 0.004330165071857877 0  0.02 0.004132269451381683 0  0.02 0.003934412277780621 0  0.02 0.003738328628487856 0  0.02 0.003556206383353586 0  0.02 0.003412055643447466 0  0.02 0.003297217623570428 0  0.02 0.003193251726541566 0  0.02 0.003092681927108373 0  0.02 0.002993152554852059 0  0.02 0.002893837299367244 0  0.02 0.002794522043882504 0  0.02 0.002695206788397242 0  0.02 0.002595891532911922 0  0.02 0.002496576277426601 0  0.02 0.002397261021941282 0  0.02 0.002297945766455962 0  0.02 0.002198630510970641 0  0.02 0.002099315255485321 0  0.02 0.001904372539982662 0  0.02 0.00180874507996562 0  0.02 0.001713117619948905 0  0.02 0.001617490159932045 0  0.02 0.001521862699915003 0  0.02 0.001426235239897792 0  0.02 0.001330607779880864 0  0.02 0.00123498031986434 0  0.02 0.001139352859847767 0  0.02 0.001043725399830725 0  0.02 0.0009480373746167511 0  0.02 0.0008517785356742583 0  0.02 0.0007536755098076359 0  0.02 0.0006498368539039022 0  0.02 0.0005291058521203294 0  0.02 0.0003733069980584446 0  0.02 0.0001899121872328039 0  0.01980198019801899 0 0  0.01960396039603798 0 0  0.01940594059405751 0 0  0.01920792079207809 0 0  0.01900990099009879 0 0  0.0188118811881195 0 0  0.01861386138614021 0 0  0.01841584158416092 0 0  0.01821782178218163 0 0  0.01801980198020233 0 0  0.01782178217822304 0 0  0.01762376237624375 0 0  0.01742574257426446 0 0  0.01722772277228516 0 0  0.01702970297030587 0 0  0.01683168316832658 0 0  0.01663366336634692 0 0  0.01643564356436677 0 0  0.01623762376238662 0 0  0.01603960396040647 0 0  0.01584158415842632 0 0  0.01564356435644616 0 0  0.01544554455446567 0 0  0.01524752475248552 0 0  0.0150495049505056 0 0  0.0148514851485262 0 0  0.01465346534654691 0 0  0.01445544554456762 0 0  0.01425742574258833 0 0  0.01405940594060903 0 0  0.01386138613862974 0 0  0.01366336633665045 0 0  0.01346534653467116 0 0  0.01326732673269186 0 0  0.01306930693071257 0 0  0.01287128712873307 0 0  0.01267326732675304 0 0  0.01247524752477289 0 0  0.01227722772279274 0 0  0.01207920792081283 0 0  0.01188118811883343 0 0  0.01168316831685414 0 0  0.01148514851487485 0 0  0.0112871287128953 0 0  0.01108910891091523 0 0  0.01089108910893508 0 0  0.01069306930695493 0 0  0.01049504950497506 0 0  0.01029702970299571 0 0  0.01009900990101629 0 0  0.009900990099036141 0 0  0.009702970297055254 0 0  0.009504950495074242 0 0  0.009306930693093381 0 0  0.009108910891113039 0 0  0.008910891089132891 0 0  0.00871287128715266 0 0  0.008514851485171908 0 0  0.008316831683190898 0 0  0.008118811881209886 0 0  0.007920792079228876 0 0  0.007722772277247866 0 0  0.007524752475266856 0 0  0.007326732673285883 0 0  0.007128712871305429 0 0  0.00693069306932528 0 0  0.006732673267345128 0 0  0.006534653465364517 0 0  0.006336633663383506 0 0  0.006138613861402497 0 0  0.005940594059421487 0 0  0.005742574257440475 0 0  0.005544554455459467 0 0  0.005346534653478721 0 0  0.005148514851498497 0 0  0.004950495049518343 0 0  0.00475247524
[...]
<PointData  Scalars="VMS [Pa]"> 
<DataArray  type="Float64"  Name="VMS [Pa]"  format="ascii">3.7425857505342479e+04  2.9719151346078357e+06  5.6800741524716261e+02  5.6797494242623486e+02  2.9720168119509974e+06  3.7426600624936538e+04  1.2285542069984263e+04  2.1528036215684263e+05  4.9470190114618605e+05  7.5224386227694701e+05  9.9277881063912134e+05  1.2331509058469397e+06  1.4801316838392289e+06  1.7425793815482287e+06  1.9966498249060067e+06  2.2564158387831855e+06  2.5416697753359415e+06  2.8239112770512830e+06  3.1391530952590480e+06  3.4624270350081506e+06  3.8788471436249418e+06  4.3918177320186980e+06  5.0573889328235062e+06  4.2275363525787815e+06  4.1834934931334872e+06  4.0476700739625185e+06  4.1010172879220676e+06  4.1349153524461035e+06  4.1295452547649248e+06  4.1032294524406432e+06  4.0695817660648092e+06  4.0251515541485776e+06  3.9721719270277079e+06  3.9169627370622479e+06  3.8583926214696029e+06  3.7942469126524613e+06  3.7186756390575445e+06  3.6242067760333526e+06  3.5037081039531538e+06  3.3720052737132581e+06  3.2369454957840769e+06  3.1037191312722289e+06  2.9711838177281073e+06  2.8389529714741451e+06  2.7096162797416276e+06  2.5821434486901499e+06  2.4560555088758185e+06  2.3320101719857170e+06  2.2102079311033161e+06  2.0886572156031854e+06  1.9702916180794896e+06  1.8543592536878646e+06  1.7398771759106813e+06  1.6274225846407893e+06  1.5177318756560970e+06  1.4098861888996291e+06  1.3044645963480568e+06  1.2013217450143031e+06  1.1009303787187296e+06  1.0033204247032537e+06  9.0743865243373450e+05  8.1566665394097357e+05  7.2638127060213801e+05  6.4079786273307318e+05  5.5880908255616692e+05  4.7991916543474619e+05  4.0541386402956472e+05  3.3580651516202139e+05  2.7123432762150781e+05  2.1173587431412868e+05  1.5706634681725217e+05  1.1001965630071543e+05  7.2174086575529771e+04  4.6370461544268153e+04  2.8717919424101980e+04  1.5005535345950942e+04  3.9361956439872956e+03  2.5840036802227205e+03  1.1270282285722406e+04  1.6263787762522430e+04  1.8589617108127753e+04  1.8827714343695832e+04  1.7172847068109768e+04  1.3927130910877970e+04  9.4715294835437744e+03  4.5476023985958291e+03  7.6435028881163657e+02  7.6447094116103699e+02  4.6073266060024489e+03  9.5282629511619980e+03  1.3948227493835086e+04  1.7164075391458318e+04  1.8662825845859214e+04  1.8403692493020080e+04  1.6085508416410630e+04  1.0306311750554351e+04  1.6330070384360724e+03  4.9665075386408434e+03  1.6194524307654470e+04  3.0100805333302447e+04  4.8037600247028211e+04  7.4341045885157379e+04  1.1262616334065174e+05  1.5834813275309050e+05  2.0920954374867564e+05  2.6564894377945026e+05  3.2532419174348720e+05  3.8739032596183283e+05  4.5189263406332443e+05  5.1810042210792744e+05  5.8522165254500916e+05  6.5332445510492765e+05  7.2143507353115571e+05  7.8929459793400951e+05  8.5613919599476596e+05  9.2227533725616033e+05  9.8713367533377639e+05  1.0504441480308040e+06  1.1118056231056429e+06  1.1721458521987309e+06  1.2296782042307069e+06  1.2851297568310800e+06  1.3382886414150477e+06  1.3896201376087160e+06  1.4379853619527288e+06  1.4839718210654580e+06  1.5274332441296196e+06  1.5682330400368467e+06  1.6070207012172199e+06  1.6429497016345928e+06  1.6759422123214996e+06  1.7065628656901550e+06  1.7353671345389206e+06  1.7611288196929127e+06  1.7846307690728391e+06  1.8055712822531045e+06  1.8241099892737565e+06  1.8402576285980034e+06  1.8540746768561753e+06  1.8655549743675618e+06  1.8747208160902313e+06  1.8816739670349541e+06  1.8862353414419540e+06  1.8883923997219349e+06  1.8884048261034829e+06  1.8862781453227678e+06  1.8816598959336753e+06  1.8747783185054411e+06  1.8657106120781444e+06  1.8542104238522567e+06  1.8403129959304058e+06  1.8241138235665157e+06  1.8053443202360598e+06  1.7844840611423305e+06  1.7612348952987564e+06  1.7353972802340365e+06  1.7068101507691781e+06  1.6761501299039628e+06  1.6425449390564200e+06  1.6069531854366376e+06  1.5684977338967370e+06  1.5275400184225393e+06  1.4841384402191837e+06  1.4379298992529558e+06  1.3895742529340405e+06  1.3386627322363763e+06  1.2854387621484739e+06  1.2295218464200038e+06  1.1720004263917629e+06  1.1116275003824963e+06  1.0503726324520449e+06  9.8702388772321609e+05  9.2216013727379404e+05  8.5611510136454075e+05  7.8921764269373030e+05  7.2134142231706099e+05  6.5320126965385384e+05  5.8521540949291061e+05  5.1808620207828050e+05  4.5184859162907745e+05  3.8735787544167828e+05  3.2530367433776543e+05  2.6584622734591796e+05  2.0991530256128253e+05  1.5831172742411165e+05  1.1262487188750342e+05  7.4378207671887911e+04  4.8002640572154378e+04  3.0098553706071227e+04  1.6192296037679913e+04  4.9682614627779712e+03  1.6313050827217517e+03  1.0305646455986336e+04  1.6083980743353259e+04  1.8404241109782804e+04  1.8665469776317961e+04  1.7164044859883219e+04  1.3947903933793337e+04  9.5279739388421949e+03  4.6071532680160708e+03  7.6442093175650723e+02  7.6430730891687085e+02  4.5474181629301338e+03  9.4711638117779930e+03  1.3926624269306058e+04  1.7172283672785881e+04  1.8827183280655867e+04  1.8589204804862537e+04  1.6263553885013282e+04  1.1270453317923180e+04  2.5845890912126420e+03  3.9354429484835450e+03  1.5004414448427773e+04  2.8716386151165290e+04  4.6368455261401206e+04  7.2171344119171990e+04  1.1001579602961532e+05  1.5705640011011082e+05  2.1169623862150140e+05  2.7112760360454611e+05  3.3582626259414683e+05  4.0535235707503225e+05  4.7979426561207132e+05  5.5879978610256873e+05  6.4078546484812372e+05  7.2642487853092316e+05  8.1546277117140242e+05  9.0734837144429935e+05  1.0033048395485376e+06  1.1009040588887853e+06  1.2012370790636726e+06  1.3043315046030059e+06  1.4094677925272929e+06  1.5176338563257661e+06  1.6272773258478981e+06  1.7398437752954124e+06  1.8543371913869099e+06  1.9702976059726535e+06  2.0890005024310455e+06  2.2095998542561247e+06  2.3318395422837771e+06  2.4558926599245938e+06  2.5820946397305913e+06  2.7095830367524275e+06  2.8389228740779487e+06  2.9712947604193427e+06  3.1035687355683618e+06  3.2368815098389378e+06  3.3723018149003340e+06  3.5036914658670281e+06  3.6242560675760671e+06  3.7187355160366488e+06  3.7942979042623397e+06  3.8584421478793081e+06  3.9170155826020730e+06  3.9722135443957667e+06  4.0251606861059316e+06  4.0698376858966127e+06  4.1041620240366468e+06  4.1280893195556877e+06  4.1343276487229052e+06  4.1006335486698248e+06  4.0470874860438090e+06  4.1829355812789872e+06  4.2269603031735178e+06  5.0578444580206545e+06  4.3922338388965819e+06  3.8791528934834246e+06  3.4626295674574571e+06  3.1392415895884987e+06  2.8239416944561498e+06  2.5416538025924615e+06  2.2564760363566373e+06  1.9966823004505215e+06  1.7426027907629458e+06  1.4801491697527873e+06  1.2331644136503802e+06  9.9278981456385774e+05  7.5225285919694684e+05  4.9470883205077163e+05  2.1528457429803838e+05  1.2286241629511020e+04  1.1882442877498954e+04  2.5111783476736944e+05  5.8096134333344409e+05  9.1497798402226449e+05  1.1950299965918448e+06  1.4011718202988259e+06  1.5038589202062024e+06  1.5280602962249469e+06  1.4814170722538473e+06  1.3798656011766822e+06  1.2360768243729242e+06  1.0658237733629453e+06  8.7533661441514490e+05  6.7421763361203391e+05  4.5572841628772608e+05  1.8515763031150476e+05  -5.4669711351871028e+03  1.7902178074222282e+05  3.7666749490688840e+05  5.6591420791783568e+05  7.4619855655381468e+05  9.1732250577088376e+05  1.0775051743841101e+06  1.2313597244926277e+06  1.3730515630740039e+06  1.5071027982002290e+06  1.6318080235232657e+06  1.7475700104751184e+06  1.8548388376077074e+06  1.9551623984252885e+06  2.0481190742292912e+06  2.1334152748725088e+06  2.2135923150354302e+06  2.2850051823165906e+06  2.3524708435383830e+06  2.4134215978489802e+06  2.4686768137891749e+06  2.5189409796707844e+06  2.5645083582840543e+06  2.6053843330103159e+06  2.6414275770873860e+06  2.6736819474557373e+06  2.7012786584940711e+06  2.7259510475190245e+06  2.7463008628908396e+06  2.7629744367007571e+06  2.7762432213015049e+06  2.7861583847740912e+06  2.7927033707581777e+06  2.7958629866464636e+06  2.7956239280150943e+06  2.7923817915846803e+06  2.7855870905791470e+06  2.7753583561248281e+06  2.7611804107075385e+06  2.7447828680698946e+06  2.7242654777119132e+06  2.6993751504681977e+06  2.6716175848954460e+06  2.6394731190617839e+06  2.6031589595460221e+06  2.5624840640524686e+06  2.5170052876871680e+06  2.4669247840195545e+06  2.4119234621252068e+06  2.3512851995063429e+06  2.2841937012505969e+06  2.2131728154517682e+06  2.1333860363475843e+06  2.0484490230942548e+06  1.9557677911237578e+06  1.8556348929922818e+06  1.7484434312485955e+06  1.6326229805198752e+06  1.5078115156863511e+06  1.3736324810834827e+06  1.2317351166018317e+06  1.0777251713746882e+06  9.1743150548865215e+05  7.4621152484416671e+05  5.6587948670602893e+05  3.7661344126183452e+05  1.7895411628219526e+05  -5.4808109999083090e+03  1.8526329171895428e+05  4.5582462774457363e+05  6.7431371939065820e+05  8.7543713189960120e+05  1.0659227154882818e+06  1.2361700546402191e+06  1.3799224307409686e+06  1.4814142912154833e+06  1.5280838216217863e+06  1.5038635809680414e+06  1.4021870449598667e+06  1.1952786592182273e+06  9.1495506912102061e+05  5.8095412772454135e+05  2.5111050183583726e+05  1.1881584955721932e+04  5.4101130776946666e+06  4.6007095275329538e+06  5.2881103702164423e+06  4.2024837969108718e+06  4.1161726528489734e+06  4.4134545020036632e+06  3.5809063870993373e+06  3.8744153278837260e+06  3.2822784388208967e+06  3.7443841336656841e+06  3.4600804810509151e+06  3.2141000760708810e+06  3.2289254701177375e+06  2.4956669973361404e+06  3.0385039083371251e+06  2.9644151540490245e+06  2.5549705595964831e+06  2.7802308616189836e+06  2.7284123798770672e+06  2.3797228271727599e+06  2.6403204959511026e+06  2.0322535882120461e+06  2.3925328861574591e+06  2.6518004603329413e+06  2.3021987618682971e+06  2.0803309244520881e+06  2.1738556665239991e+06  2.4296902747898414e+06  2.2644614038770720e+06  2.1825125398484985e+06  1.5894563273900689e+06  2.3837891243492272e+06  2.3343161363259824e+06  1.9794854205469007e+06  1.9377640810787061e+06  2.0080857976824711e+06  2.0968304671802365e+06  1.9184614620726763e+06  1.9347868466161150e+06  1.7494190645184617e+06  2.0819849287173650e+06  2.0161113141544724e+06  2.0250086355169145e+06  1.5908271611431153e+06  1.7671162247588141e+06  2.1346017517542168e+06  1.5487859648110582e+06  1.8337967503338498e+06  1.4798652669846623e+06  1.5349288556177979e+06  1.9284088302442834e+06  1.8497184113881921e+06  1.7936380176586402e+06  1.4312006703849959e+06  1.9821007232413539e+06  1.4577774918480001e+06  1.4708725748897304e+06  1.3192215983674948e+06  1.7596324836115679e+06  1.9901134182683874e+06  1.4625914311254732e+06  1.2638730527280034e+06  1.3803749974532896e+06  1.7283210991375891e+06  1.3530116197059320e+06  1.3854995516753269e+06  1.4019715602314868e+06  1.3753209787367077e+06  1.7141186299744400e+06  1.3285440299365525e+06  1.2454706204000292e+06  1.2313183663323014e+06  1.8245639295009328e+06  1.2241572373646733e+06  1.2959022291527977e+06  1.4328870383975266e+06  1.9060431491527944e+06  1.4641711223043459e+06  1.0635606969208806e+06  1.2151805310501966e+06  1.5194460394334556e+06  1.6625432876818851e+06  1.2525871070562107e+06  1.2894767093789305e+06  1.3101651447309072e+06  1.5112031963233862e+06  1.1613809240617275e+06  1.6847849499078807e+06  1.1676712943039718e+06  1.4652603778715478e+06  1.3778437914233983e+06  1.2213094306461469e+06  1.4737936381769255e+06  1.2857301493674556e+06  1.5675221202543704e+06  1.3174538749680752e+06  1.6295776885799991e+06  1.1230676856030393e+06  1.1563108733641268e+06  1.5793256213638089e+06  1.5738320615615260e+06  1.1435141671796581e+06  1.1096254822192416e+06  1.2007310994831689e+06  1.8338111505873117e+06  1.2507182644840803e+06  1.2032412460387556e+06  1.2560902298921323e+06  1.5444449606080083e+06  1.2150601818738787e+06  1.1723599488494312e+06  1.2156485420152333e+06  1.5723271471175328e+06  1.3372212317528923e+06  1.2549621054476867e+06  1.2896783520632251e+06  1.2431704251202121e+06  1.5588664104737013e+06  1.5259442681842456e+06  1.1551886611986058e+06  1.2237357615109319e+06  1.8342452276444081e+06  1.1710032433136611e+06  1.1894000157083895e+06  1.2876067793156465e+06  1.2258222304200416e+06  1.7348130257815628e+06  1.2266431733359839e+06  1.1398629754278394e+06  1.2551787976828178e+06  1.7087429590532957e+06  1.2949329559121716e+06  1.2805774361526507e+06  1.3959211915653532e+06  1.5840593271683764e+06  1.6828966543765890e+06  1.5658902909432531e+06  1.2705929750831968e+06  1.5653809197401740e+06  1.2898182757352393e+06  1.7933685004764262e+06  1.5471777389294247e+06  1.2398520110875024e+06  1.6199813391478565e+06  1.3804980216164018e+06  2.0797978806365561e+06  1.5457111972806933e+06  1.5024955803441666e+06  1.6152098391429200e+06  1.6582830440769840e+06  1.8322899396310642e+06  1.8021126776878920e+06  1.4781379671017195e+06  2.0001072862972100e+06  1.5876396898864824e+06  1.7487841104687431e+06  1.6417918069762280e+06  2.0787491730681546e+06  1.9988743786402701e+06  1.7565382838370572e+06  1.9357594664743240e+06  1.9105442972155672e+06  2.0678570145955612e+06  2.0091195330391701e+06  1.9381167048780145e+06  1.9795355988679300e+06  2.3343447897252981e+06  2.3839826462606005e+06  1.5893378555551267e+06  2.1836623016199451e+06  2.2685967526068613e+06  2.4342357899664622e+06  2.0615909167865519e+06  2.2232013088431861e+06  2.2115536434331308e+06  2.7728389729904034e+06  2.4077849859451912e+06  2.0288221214394078e+06  2.6191201244410421e+06  2.3622864888362973e+06  2.7360770273435237e+06  2.7787133561418927e+06  2.5499930472100535e+06  2.9669748752862974e+06  3.1065236370768221e+06  2.4082130574574699e+06  3.2401565659635933e+06  3.2090518916315683e+06  3.4543772234411407e+06  3.7425967505711759e+06  3.2814606140459403e+06  3.8731864743062709e+06  3.5803322510078656e+06  4.4314133227921212e+06  4.1223137034772690e+06  4.2132169730558814e+06  5.2838864953835635e+06  4.6005622518123444e+06  5.4100913288617376e+06  6.8683497461104009e+05  6.9331374821005308e+05  4.5193062842006481e+05  1.2697701039084848e+06  1.2564693009420088e+06  5.0077378173020179e+05  5.0061167547656642e+05  1.8602491255533539e+06  1.3724535173492029e+06  1.3822659687477257e+06  6.0597988850987062e+05  6.0710784211154038e+05  9.9887072117317480e+05  1.0001556514842459e+06  1.2753325489022825e+06  1.2752634090723351e+06  2.3475532072072141e+06  3.7655702824314748e+05  3.7712762475150340e+05  6.5771062954784336e+05  2.3932278039508313e+06  1.7820817356054985e+06  1.7820586449976624e+06  2.2419443261183319e+06  2.2628430475679408e+06  2.1879772399910158e+06  2.1854273980300422e+06  9.3581031160992931e+05  9.3773284881623625e+05  1.0846686844154643e+06  1.0789573972255397e+06  2.5713104812404728e+06  2.5772030004669968e+06  4.2087972625816904e+05  4.5067168327979633e+05  2.7499065252553271e+06  2.9476708302652743e+06  2.8764960608270271e+06  3.0401545350693162e+06  2.9952591342259604e+06  9.9038175636359991e+05  9.8705394978246978e+05  2.0885446216177118e+06  2.0885761048642546e+06  2.9508997628674675e+06  9.8017820084050531e+05  9.8560111520555499e+05  1.0529082659770816e+06  1.0654508118192016e+06  3.0861621627378063e+06  2.9842859726658561e+06  2.8080587395570497e+05  2.5414982254001489e+06  2.5258446457187813e+06  8.7024344246334792e+05  8.6931656634626654e+05  1.0539128063182542e+06  3.0431741065922799e+06  2.6979373349105188e+05  5.5945503764481330e+05  6.6887370864923869e+05  1.0265581808676785e+06  6.7098954119573836e+05  7.2334785363241646e+05  7.6267374079168960e+05  7.5984502985268016e+05  9.4492427425121807e+05  9.3980465376778040e+05  9.8843722077475826e+05  9.8835556119627750e+05  2.7537352186572985e+06  2.7534760756249754e+06  3.0740200413180022e+06  1.0325853786832417e+05  1.0326966944347114e+05  2.9879100061737108e+06  2.9925954733751263e+06  9.2840505259549769e+05  9.4061965030571981e+05  3.2182475385901392e+06  2.0866280386014006e+06  2.9346061283158218e+06  2.9033036436661654e+06  2.9539258033035756e+06  2.9672082735690414e+06  7.0185637876436184e+05  7.0142969441589422e+05  2.2138529346605868e+05  5.4865212869318435e+05  2.0239158022987482e+06  5.5203908531101421e+05  7.3010101574231079e+05  1.0586550276729704e+06  1.0597528685458822e+06  7.4220564790235367e+05  1.1871280432316891e+06  1.2549105892155417e+06  1.2433990160733759e+06  7.7670549371503922e+05  3.2551277567746132e+06  3.0788094936124431e+06  3.0913820307320147e+06  5.5030083508386859e+05  1.0026329172821321e+06  3.1772756006197059e+06  1.0028848997642677e+06  1.8238547832119567e+06  1.8239764853495162e+06  3.2230814411974135e+06  6.7286933610551676e+05  5.3077383553582104e+05  3.2055605000823261e+06  1.3523861713206593e+06  1.8248485435668525e+05  1.8571021007283896e+05  2.4644863186862008e+06  1.9614903476059556e+05  1.9614116407850196e+05  6.1761159620866412e+05  6.1849802915698651e+05  1.3323166365985416e+06  1.6794882749787446e+06  1.6799422146667654e+06  8.0523401357671618e+05  2.3922298466954813e+06  1.8094327571815660e+06  1.0945266192521467e+06  1.0947370100078743e+06  7.9756484353295551e+05  9.0093501562433084e+05  8.9841118375360512e+05  3.3134075668968135e+06  3.3015083555551320e+06  1.8443363555008839e+06  3.3020813047758373e+06  6.0258298441343091e+05  1.7071363147956610e+06  2.2321282370314300e+06  2.1302400044946559e+06  1.2144323350354726e+06  1.2126098584366664e+06  1.6127439411495861e+06  9.9494637443811959e+05  9.9563760628196201e+05  3.3164938168547498e+06  1.2971819339085515e+06  9.7766633936717641e+05  4.1234294652605284e+05  8.1974575996492268e+05  5.5741543848798971e+05  9.0145432104386203e+05  9.0240745876688755e+05  3.3092626248629605e+06  3.6030983413299947e+05  3.2562339914998822e+06  2.7977429770591287e+06  3.3163840382185788e+06  9.3690899357774388e+05  9.3671656831359456e+05  5.2316561848240613e+05  9.0898498218159773e+05  9.0067278123371699e+05  5.3192321108348807e+05  2.6178658012475446e+06  2.6185285848739091e+06  7.3562848794769461e+05  4.5581528595459083e+05  8.4221987934939459e+05  4.5603732815181656e+05  8.5205592069522419e+05  2.8921393724879874e+06  6.5785739024899178e+05  3.3739101963673183e+06  5.3293222383967810e+05  5.1275700126886630e+05  6.5434571111145651e+05  1.8049866286764063e+06  5.1191595249755081e+05  2.1657747433310067e+06  2.1657720450360272e+06  3.3112382199432235e+06  8.2500063184133929e+05  8.2941271395847760e+05  2.8870297989753634e+06  8.3049137794261379e+05  3.4676040965615623e+06  3.4723315598213961e+06  1.1981530105429157e+06  1.1858539792784904e+06  1.4057862147055583e+06  1.4058119839003410e+06  3.3872832332939426e+06  3.3995681074317913e+06  2.6746166210845723e+06  3.5205562483778321e+06  3.4776741596725485e+06  2.5732321242709835e+06  2.6273217294603195e+06  3.3924091367444205e+06  3.3474501519848327e+06  3.3476148229370951e+06  1.0714014111091860e+06  1.0499009923299490e+06  1.3567728263793911e+06  3.3561788712431104e+06  9.1046631605877052e+05  1.3009901066519786e+04  1.3010757845751055e+04  1.1634500266980566e+06  8.9828624936012819e+05  3.3591251493323566e+06  3.3599043768725866e+06  3.8883577875120833e+05  1.1539126814846140e+06  2.9207999811573927e+06  3.3823924430924454e+06  2.7047552322812141e+06  8.5786956724800437e+05  6.0448115812769660e+05  1.7795575570911821e+06  2.7010373959552832e+06  8.8493725456287852e+05  1.3615418240262570e+06  9.9830133270292787e+05  9.9458073165886011e+05  8.4397014540008316e+05  3.3992091322821979e+06  2.7737472819069475e+06  8.3276940049544384e+05  9.3385491803920234e+05  3.4132642294902494e+06  1.8084087541437914e+05  4.0546731256725593e+05  5.4048767593372613e+05  1.5416954865883698e+06  5.4073103785109590e+05  3.4259708093991824e+06  9.3826050343312230e+05  2.8375476389573183e+05  1.5766119348567100e+06  1.5680252879823376e+06  9.3119302323830337e+05  2.5314051296178279e+06  2.5317133721075775e+06  6.5157596228265250e+05  6.5169257901078614e+05  2.2148377649075338e+06  5.1299828813358565e+05  2.2689436