<?xml version="1.0"?>
<VTKFile type="UnstructuredGrid"  version="0.1"  >
<UnstructuredGrid>
<Piece  NumberOfPoints="105" NumberOfCells="160">
<Points>
<DataArray  type="Float64"  NumberOfComponents="3"  format="ascii">0 0 0  0.001 0 0  0.002 0 0  0.003 0 0  0.004 0 0  0.005 0 0  0.006 0 0  0.007000000000000001 0 0  0.008 0 0  0.008999999999999999 0 0  0.01 0 0  0.011 0 0  0.012 0 0  0.013 0 0  0.014 0 0  0.015 0 0  0.016 0 0  0.017 0 0  0.018 0 0  0.019 0 0  0.02 0 0  0 0.003 0  0.001 0.003 0  0.002 0.003 0  0.003 0.003 0  0.004 0.003 0  0.005 0.003 0  0.006 0.003 0  0.007000000000000001 0.003 0  0.008 0.003 0  0.008999999999999999 0.003 0  0.01 0.003 0  0.011 0.003 0  0.012 0.003 0  0.013 0.003 0  0.014 0.003 0  0.015 0.003 0  0.016 0.003 0  0.017 0.003 0  0.018 0.003 0  0.019 0.003 0  0.02 0.003 0  0 0.006 0  0.001 0.006 0  0.002 0.006 0  0.003 0.006 0  0.004 0.006 0  0.005 0.006 0  0.006 0.006 0  0.007000000000000001 0.006 0  0.008 0.006 0  0.008999999999999999 0.006 0  0.01 0.006 0  0.011 0.006 0  0.012 0.006 0  0.013 0.006 0  0.014 0.006 0  0.015 0.006 0  0.016 0.006 0  0.017 0.006 0  0.018 0.006 0  0.019 0.006 0  0.02 0.006 0  0 0.009000000000000001 0  0.001 0.009000000000000001 0  0.002 0.009000000000000001 0  0.003 0.009000000000000001 0  0.004 0.009000000000000001 0  0.005 0.009000000000000001 0  0.006 0.009000000000000001 0  0.007000000000000001 0.009000000000000001 0  0.008 0.009000000000000001 0  0.008999999999999999 0.009000000000000001 0  0.01 0.009000000000000001 0  0.011 0.009000000000000001 0  0.012 0.009000000000000001 0  0.013 0.009000000000000001 0  0.014 0.009000000000000001 0  0.015 0.009000000000000001 0  0.016 0.009000000000000001 0  0.017 0.009000000000000001 0  0.018 0.009000000000000001 0  0.019 0.009000000000000001 0  0.02 0.009000000000000001 0  0 0.012 0  0.001 0.012 0  0.002 0.012 0  0.003 0.012 0  0.004 0.012 0  0.005 0.012 0  0.006 0.012 0  0.007000000000000001 0.012 0  0.008 0.012 0  0.008999999999999999 0.012 0  0.01 0.012 0  0.011 0.012 0  0.012 0.012 0  0.013 0.012 0  0.014 0.012 0  0.015 0.012 0  0.016 0.012 0  0.017 0.012 0  0.018 0.012 0  0.019 0.012 0  0.02 0.012 0  </DataArray>
</Points>
<Cells>
<DataArray  type="UInt32"  Name="connectivity"  format="ascii">0 1 22  0 21 22  1 2 22  2 22 23  2 3 24  2 23 24  3 4 24  4 24 25  4 5 26  4 25 26  5 6 26  6 26 27  6 7 28  6 27 28  7 8 28  8 28 29  8 9 30  8 29 30  9 10 30  10 30 31  10 11 32  10 31 32  11 12 32  12 32 33  12 13 34  12 33 34  13 14 34  14 34 35  14 15 36  14 35 36  15 16 36  16 36 37  16 17 38  16 37 38  17 18 38  18 38 39  18 19 40  18 39 40  19 20 40  20 40 41  21 22 42  22 42 43  22 23 44  22 43 44  23 24 44  24 44 45  24 25 46  24 45 46  25 26 46  26 46 47  26 27 48  26 47 48  27 28 48  28 48 49  28 29 50  28 49 50  29 30 50  30 50 51  30 31 52  30 51 52  31 32 52  32 52 53  32 33 54  32 53 54  33 34 54  34 54 55  34 35 56  34 55 56  35 36 56  36 56 57  36 37 58  36 57 58  37 38 58  38 58 59  38 39 60  38 59 60  39 40 60  40 60 61  40 41 62  40 61 62  42 43 64  42 63 64  43 44 64  44 64 65  44 45 66  44 65 66  45 46 66  46 66 67  46 47 68  46 67 68  47 48 68  48 68 69  48 49 70  48 69 70  49 50 70  50 70 71  50 51 72  50 71 72  51 52 72  52 72 73  52 53 74  52 73 74  53 54 74  54 74 75  54 55 76  54 75 76  55 56 76  56 76 77  56 57 78  56 77 78  57 58 78  58 78 79  58 59 80  58 79 80  59 60 80  60 80 81  60 61 82  60 81 82  61 62 82  62 82 83  63 64 84  64 84 85  64 65 86  64 85 86  65 66 86  66 86 87  66 67 88  66 87 88  67 68 88  68 88 89  68 69 90  68 89 90  69 70 90  70 90 91  70 71 92  70 91 92  71 72 92  72 92 93  72 73 94  72 93 94  73 74 94  74 94 95  74 75 96  74 95 96  75 76 96  76 96 97  76 77 98  76 97 98  77 78 98  78 98 99  78 79 100  78 99 100  79 80 100  80 100 101  80 81 102  80 101 102  81 82 102  82 102 103  82 83 104  82 103 104  </DataArray>
<DataArray  type="UInt32"  Name="offsets"  format="ascii">3 6 9 12 15 18 21 24 27 30 33 36 39 42 45 48 51 54 57 60 63 66 69 72 75 78 81 84 87 90 93 96 99 102 105 108 111 114 117 120 123 126 129 132 135 138 141 144 147 150 153 156 159 162 165 168 171 174 177 180 183 186 189 192 195 198 201 204 207 210 213 216 219 222 225 228 231 234 237 240 243 246 249 252 255 258 261 264 267 270 273 276 279 282 285 288 291 294 297 300 303 306 309 312 315 318 321 324 327 330 333 336 339 342 345 348 351 354 357 360 363 366 369 372 375 378 381 384 387 390 393 396 399 402 405 408 411 414 417 420 423 426 429 432 435 438 441 444 447 450 453 456 459 462 465 468 471 474 477 480 </DataArray>
<DataArray  type="UInt8"  Name="types"  format="ascii">5 5 5 5 5 5 5 5 5 5 5 5 5 5 5 5 5 5 5 5 5 5 5 5 5 5 5 5 5 5 5 5 5 5 5 5 5 5 5 5 5 5 5 5 5 5 5 5 5 5 5 5 5 5 5 5 5 5 5 5 5 5 5 5 5 5 5 5 5 5 5 5 5 5 5 5 5 5 5 5 5 5 5 5 5 5 5 5 5 5 5 5 5 5 5 5 5 5 5 5 5 5 5 5 5 5 5 5 5 5 5 5 5 5 5 5 5 5 5 5 5 5 5 5 5 5 5 5 5 5 5 5 5 5 5 5 5 5 5 5 5 5 5 5 5 5 5 5 5 5 5 5 5 5 5 5 5 5 5 5 </DataArray>
</Cells>
<PointData  Vectors="U [m]"> 
<DataArray  type="Float64"  Name="U [m]"  NumberOfComponents="3" format="ascii">-6.9107274730690397e-06 -3.5154272218815553e-05 0.0000000000000000e+00  -6.6775582478089216e-06 -3.3910146542028619e-05 0.0000000000000000e+00  -6.4102695558927296e-06 -3.3057786869663108e-05 0.0000000000000000e+00  -5.9678516385759064e-06 -3.2560104821278576e-05 0.0000000000000000e+00  -5.4419678580173843e-06 -3.2313402267815968e-05 0.0000000000000000e+00  -4.7336859776439072e-06 -3.2195937533600876e-05 0.0000000000000000e+00  -3.9431183983049874e-06 -3.2261991126980728e-05 0.0000000000000000e+00  -3.0311318434643939e-06 -3.2234679323259967e-05 0.0000000000000000e+00  -2.0650209847580170e-06 -3.2394050393639858e-05 0.0000000000000000e+00  -1.0416892718486678e-06 -3.2325955202879989e-05 0.0000000000000000e+00  -6.9142065031840019e-20 -3.2461180333403869e-05 0.0000000000000000e+00  1.0416892718485270e-06 -3.2325955202879948e-05 0.0000000000000000e+00  2.0650209847578789e-06 -3.2394050393639777e-05 0.0000000000000000e+00  3.0311318434642533e-06 -3.2234679323259852e-05 0.0000000000000000e+00  3.9431183983048527e-06 -3.2261991126980592e-05 0.0000000000000000e+00  4.7336859776437615e-06 -3.2195937533600720e-05 0.0000000000000000e+00  5.4419678580172446e-06 -3.2313402267815792e-05 0.0000000000000000e+00  5.9678516385757581e-06 -3.2560104821278380e-05 0.0000000000000000e+00  6.4102695558925856e-06 -3.3057786869662885e-05 0.0000000000000000e+00  6.6775582478087751e-06 -3.3910146542028362e-05 0.0000000000000000e+00  6.9107274730688949e-06 -3.5154272218815227e-05 0.0000000000000000e+00  -1.1105759791338299e-05 -3.3655201804748865e-05 0.0000000000000000e+00  -1.0359667871370758e-05 -3.2478241813917248e-05 0.0000000000000000e+00  -9.3869876520916394e-06 -3.1896893557843048e-05 0.0000000000000000e+00  -8.3990158874033318e-06 -3.1609968035830215e-05 0.0000000000000000e+00  -7.2567305932931478e-06 -3.1572836385460878e-05 0.0000000000000000e+00  -6.1068024476024715e-06 -3.1673602953039588e-05 0.0000000000000000e+00  -4.8983537527693214e-06 -3.1745200332581275e-05 0.0000000000000000e+00  -3.6855007293618047e-06 -3.1952078296084976e-05 0.0000000000000000e+00  -2.4589325587739489e-06 -3.1963229696559440e-05 0.0000000000000000e+00  -1.2301259154958376e-06 -3.2142128325105267e-05 0.0000000000000000e+00  -1.8219381602231569e-19 -3.2050591880804642e-05 0.0000000000000000e+00  1.2301259154954772e-06 -3.2142128325105240e-05 0.0000000000000000e+00  2.4589325587735923e-06 -3.1963229696559399e-05 0.0000000000000000e+00  3.6855007293614553e-06 -3.1952078296084909e-05 0.0000000000000000e+00  4.8983537527689690e-06 -3.1745200332581194e-05 0.0000000000000000e+00  6.1068024476021191e-06 -3.1673602953039473e-05 0.0000000000000000e+00  7.2567305932927810e-06 -3.1572836385460736e-05 0.0000000000000000e+00  8.3990158874029608e-06 -3.1609968035830052e-05 0.0000000000000000e+00  9.3869876520912549e-06 -3.1896893557842858e-05 0.0000000000000000e+00  1.0359667871370379e-05 -3.2478241813917031e-05 0.0000000000000000e+00  1.1105759791337926e-05 -3.3655201804748641e-05 0.0000000000000000e+00  -1.6162867361823368e-05 -2.7686632212463254e-05 0.0000000000000000e+00  -1.4441550058460959e-05 -2.7347236465066424e-05 0.0000000000000000e+00  -1.2845389428679762e-05 -2.7386882560587215e-05 0.0000000000000000e+00  -1.1029257043797355e-05 -2.7579788593524192e-05 0.0000000000000000e+00  -9.3122431533542645e-06 -2.7885644430532790e-05 0.0000000000000000e+00  -7.6197615853021131e-06 -2.7991656075012131e-05 0.0000000000000000e+00  -5.9923254573262192e-06 -2.8288514524430106e-05 0.0000000000000000e+00  -4.4401922326019059e-06 -2.8262945133849630e-05 0.0000000000000000e+00  -2.9233560225328462e-06 -2.8509028329446103e-05 0.0000000000000000e+00  -1.4561609554964594e-06 -2.8387587283794733e-05 0.0000000000000000e+00  -2.9919499224851634e-19 -2.8577213916809943e-05 0.0000000000000000e+00  1.4561609554958608e-06 -2.8387587283794723e-05 0.0000000000000000e+00  2.9233560225322575e-06 -2.8509028329446093e-05 0.0000000000000000e+00  4.4401922326013231e-06 -2.8262945133849606e-05 0.0000000000000000e+00  5.9923254573256474e-06 -2.8288514524430068e-05 0.0000000000000000e+00  7.6197615853015371e-06 -2.7991656075012080e-05 0.0000000000000000e+00  9.3122431533536851e-06 -2.7885644430532715e-05 0.0000000000000000e+00  1.1029257043796759e-05 -2.7579788593524074e-05 0.0000000000000000e+00  1.2845389428679155e-05 -2.7386882560587087e-05 0.0000000000000000e+00  1.4441550058460365e-05 -2.7347236465066286e-05 0.0000000000000000e+00  1.6162867361822795e-05 -2.7686632212463129e-05 0.0000000000000000e+00  -1.6391106593389280e-05 -1.5641838556132299e-05 0.0000000000000000e+00  -1.4580997027742692e-05 -1.8455747807646100e-05 0.0000000000000000e+00  -1.2410819674426576e-05 -1.9143216925787953e-05 0.0000000000000000e+00  -1.0537265625352489e-05 -2.0473362513966943e-05 0.0000000000000000e+00  -8.7343929772293147e-06 -2.0385119250630874e-05 0.0000000000000000e+00  -7.0837893605996453e-06 -2.1033155986075507e-05 0.0000000000000000e+00  -5.5473514458156347e-06 -2.0710350273945987e-05 0.0000000000000000e+00  -4.0830277742015310e-06 -2.1089472466092295e-05 0.0000000000000000e+00  -2.6947166799770765e-06 -2.0742423134139274e-05 0.0000000000000000e+00  -1.3346214819797740e-06 -2.1047353641988720e-05 0.0000000000000000e+00  -3.6746168342762397e-19 -2.0731549246860882e-05 0.0000000000000000e+00  1.3346214819790409e-06 -2.1047353641988699e-05 0.0000000000000000e+00  2.6947166799763468e-06 -2.0742423134139244e-05 0.0000000000000000e+00  4.0830277742008144e-06 -2.1089472466092241e-05 0.0000000000000000e+00  5.5473514458149266e-06 -2.0710350273945902e-05 0.0000000000000000e+00  7.0837893605989440e-06 -2.1033155986075395e-05 0.0000000000000000e+00  8.7343929772286167e-06 -2.0385119250630741e-05 0.0000000000000000e+00  1.0537265625351805e-05 -2.0473362513966794e-05 0.0000000000000000e+00  1.2410819674425918e-05 -1.9143216925787832e-05 0.0000000000000000e+00  1.4580997027742065e-05 -1.8455747807646005e-05 0.0000000000000000e+00  1.6391106593388707e-05 -1.5641838556132313e-05 0.0000000000000000e+00  0.0000000000000000e+00 0.0000000000000000e+00 0.0000000000000000e+00  -1.4351803491514569e-06 -2.7000537741251288e-06 0.0000000000000000e+00  -2.6326158365492410e-06 -6.2675567373140595e-06 0.0000000000000000e+00  -3.1478621209650397e-06 -6.4922009998104955e-06 0.0000000000000000e+00  -3.3600683090586921e-06 -8.0119047288565939e-06 0.0000000000000000e+00  -3.2026382172572173e-06 -7.6240553378481575e-06 0.0000000000000000e+00  -2.8307787744528280e-06 -8.3478306388877146e-06 0.0000000000000000e+00  -2.2631321639185033e-06 -7.8810606802688774e-06 0.0000000000000000e+00  -1.5772766062657225e-06 -8.3199004343327029e-06 0.0000000000000000e+00  -8.0717089308615030e-07 -7.9039736960231955e-06 0.0000000000000000e+00  -3.7034724849326629e-19 -8.2823497712467116e-06 0.0000000000000000e+00  8.0717089308540724e-07 -7.9039736960231769e-06 0.0000000000000000e+00  1.5772766062650006e-06 -8.3199004343326657e-06 0.0000000000000000e+00  2.2631321639177999e-06 -7.8810606802688198e-06 0.0000000000000000e+00  2.8307787744521652e-06 -8.3478306388876248e-06 0.0000000000000000e+00  3.2026382172566028e-06 -7.6240553378480541e-06 0.0000000000000000e+00  3.3600683090581547e-06 -8.0119047288564584e-06 0.0000000000000000e+00  3.1478621209645937e-06 -6.4922009998103770e-06 0.0000000000000000e+00  2.6326158365489179e-06 -6.2675567373139477e-06 0.0000000000000000e+00  1.4351803491512761e-06 -2.7000537741250784e-06 0.0000000000000000e+00  0.0000000000000000e+00 0.0000000000000000e+00 0.0000000000000000e+00  </DataArray> 
</PointData> 
</Piece>
</UnstructuredGrid>
</VTKFile>