<?xml version="1.0"?>
<VTKFile type="UnstructuredGrid"  version="0.1"  >
<UnstructuredGrid>
<Piece  NumberOfPoints="105" NumberOfCells="160">
<Points>
<DataArray  type="Float64"  NumberOfComponents="3"  format="ascii">0 0 0  0.001 0 0  0.002 0 0  0.003 0 0  0.004 0 0  0.005 0 0  0.006 0 0  0.007000000000000001 0 0  0.008 0 0  0.008999999999999999 0 0  0.01 0 0  0.011 0 0  0.012 0 0  0.013 0 0  0.014 0 0  0.015 0 0  0.016 0 0  0.017 0 0  0.018 0 0  0.019 0 0  0.02 0 0  0 0.003 0  0.001 0.003 0  0.002 0.003 0  0.003 0.003 0  0.004 0.003 0  0.005 0.003 0  0.006 0.003 0  0.007000000000000001 0.003 0  0.008 0.003 0  0.008999999999999999 0.003 0  0.01 0.003 0  0.011 0.003 0  0.012 0.003 0  0.013 0.003 0  0.014 0.003 0  0.015 0.003 0  0.016 0.003 0  0.017 0.003 0  0.018 0.003 0  0.019 0.003 0  0.02 0.003 0  0 0.006 0  0.001 0.006 0  0.002 0.006 0  0.003 0.006 0  0.004 0.006 0  0.005 0.006 0  0.006 0.006 0  0.007000000000000001 0.006 0  0.008 0.006 0  0.008999999999999999 0.006 0  0.01 0.006 0  0.011 0.006 0  0.012 0.006 0  0.013 0.006 0  0.014 0.006 0  0.015 0.006 0  0.016 0.006 0  0.017 0.006 0  0.018 0.006 0  0.019 0.006 0  0.02 0.006 0  0 0.009000000000000001 0  0.001 0.009000000000000001 0  0.002 0.009000000000000001 0  0.003 0.009000000000000001 0  0.004 0.009000000000000001 0  0.005 0.009000000000000001 0  0.006 0.009000000000000001 0  0.007000000000000001 0.009000000000000001 0  0.008 0.009000000000000001 0  0.008999999999999999 0.009000000000000001 0  0.01 0.009000000000000001 0  0.011 0.009000000000000001 0  0.012 0.009000000000000001 0  0.013 0.009000000000000001 0  0.014 0.009000000000000001 0  0.015 0.009000000000000001 0  0.016 0.009000000000000001 0  0.017 0.009000000000000001 0  0.018 0.009000000000000001 0  0.019 0.009000000000000001 0  0.02 0.009000000000000001 0  0 0.012 0  0.001 0.012 0  0.002 0.012 0  0.003 0.012 0  0.004 0.012 0  0.005 0.012 0  0.006 0.012 0  0.007000000000000001 0.012 0  0.008 0.012 0  0.008999999999999999 0.012 0  0.01 0.012 0  0.011 0.012 0  0.012 0.012 0  0.013 0.012 0  0.014 0.012 0  0.015 0.012 0  0.016 0.012 0  0.017 0.012 0  0.018 0.012 0  0.019 0.012 0  0.02 0.012 0  </DataArray>
</Points>
<Cells>
<DataArray  type="UInt32"  Name="connectivity"  format="ascii">0 1 22  0 21 22  1 2 22  2 22 23  2 3 24  2 23 24  3 4 24  4 24 25  4 5 26  4 25 26  5 6 26  6 26 27  6 7 28  6 27 28  7 8 28  8 28 29  8 9 30  8 29 30  9 10 30  10 30 31  10 11 32  10 31 32  11 12 32  12 32 33  12 13 34  12 33 34  13 14 34  14 34 35  14 15 36  14 35 36  15 16 36  16 36 37  16 17 38  16 37 38  17 18 38  18 38 39  18 19 40  18 39 40  19 20 40  20 40 41  21 22 42  22 42 43  22 23 44  22 43 44  23 24 44  24 44 45  24 25 46  24 45 46  25 26 46  26 46 47  26 27 48  26 47 48  27 28 48  28 48 49  28 29 50  28 49 50  29 30 50  30 50 51  30 31 52  30 51 52  31 32 52  32 52 53  32 33 54  32 53 54  33 34 54  34 54 55  34 35 56  34 55 56  35 36 56  36 56 57  36 37 58  36 57 58  37 38 58  38 58 59  38 39 60  38 59 60  39 40 60  40 60 61  40 41 62  40 61 62  42 43 64  42 63 64  43 44 64  44 64 65  44 45 66  44 65 66  45 46 66  46 66 67  46 47 68  46 67 68  47 48 68  48 68 69  48 49 70  48 69 70  49 50 70  50 70 71  50 51 72  50 71 72  51 52 72  52 72 73  52 53 74  52 73 74  53 54 74  54 74 75  54 55 76  54 75 76  55 56 76  56 76 77  56 57 78  56 77 78  57 58 78  58 78 79  58 59 80  58 79 80  59 60 80  60 80 81  60 61 82  60 81 82  61 62 82  62 82 83  63 64 84  64 84 85  64 65 86  64 85 86  65 66 86  66 86 87  66 67 88  66 87 88  67 68 88  68 88 89  68 69 90  68 89 90  69 70 90  70 90 91  70 71 92  70 91 92  71 72 92  72 92 93  72 73 94  72 93 94  73 74 94  74 94 95  74 75 96  74 95 96  75 76 96  76 96 97  76 77 98  76 97 98  77 78 98  78 98 99  78 79 100  78 99 100  79 80 100  80 100 101  80 81 102  80 101 102  81 82 102  82 102 103  82 83 104  82 103 104  </DataArray>
<DataArray  type="UInt32"  Name="offsets"  format="ascii">3 6 9 12 15 18 21 24 27 30 33 36 39 42 45 48 51 54 57 60 63 66 69 72 75 78 81 84 87 90 93 96 99 102 105 108 111 114 117 120 123 126 129 132 135 138 141 144 147 150 153 156 159 162 165 168 171 174 177 180 183 186 189 192 195 198 201 204 207 210 213 216 219 222 225 228 231 234 237 240 243 246 249 252 255 258 261 264 267 270 273 276 279 282 285 288 291 294 297 300 303 306 309 312 315 318 321 324 327 330 333 336 339 342 345 348 351 354 357 360 363 366 369 372 375 378 381 384 387 390 393 396 399 402 405 408 411 414 417 420 423 426 429 432 435 438 441 444 447 450 453 456 459 462 465 468 471 474 477 480 </DataArray>
<DataArray  type="UInt8"  Name="types"  format="ascii">5 5 5 5 5 5 5 5 5 5 5 5 5 5 5 5 5 5 5 5 5 5 5 5 5 5 5 5 5 5 5 5 5 5 5 5 5 5 5 5 5 5 5 5 5 5 5 5 5 5 5 5 5 5 5 5 5 5 5 5 5 5 5 5 5 5 5 5 5 5 5 5 5 5 5 5 5 5 5 5 5 5 5 5 5 5 5 5 5 5 5 5 5 5 5 5 5 5 5 5 5 5 5 5 5 5 5 5 5 5 5 5 5 5 5 5 5 5 5 5 5 5 5 5 5 5 5 5 5 5 5 5 5 5 5 5 5 5 5 5 5 5 5 5 5 5 5 5 5 5 5 5 5 5 5 5 5 5 5 5 </DataArray>
</Cells>
<PointData  Scalars="VMS [Pa]"> 
<DataArray  type="Float64"  Name="VMS [Pa]"  format="ascii">2.0729665094874166e+07  3.7434436727069207e+07  8.7925930423606262e+07  2.8470058572940346e+07  1.4485497146990260e+08  8.4708974759051785e+07  1.8346662688285986e+08  1.3517952886233491e+08  2.0769096955159608e+08  1.6142635675617760e+08  2.1640857719871715e+08  1.6142635675617737e+08  2.0769096955159771e+08  1.3517952886233544e+08  1.8346662688286057e+08  8.4708974759048983e+07  1.4485497146990058e+08  2.8470058572935030e+07  8.7925930423603728e+07  3.7434436727065742e+07  2.0729665094874013e+07  1.1630474708382045e+08  1.3196945477441028e+08  1.2447409938362780e+08  1.5613813888056698e+08  1.3468458980694568e+08  1.2891018155497244e+08  1.1789969861730868e+08  9.6866931115976274e+07  9.5270745390110642e+07  7.9448561558861583e+07  8.3915048009492576e+07  7.9448561558860943e+07  9.5270745390107900e+07  9.6866931115973487e+07  1.1789969861730532e+08  1.2891018155496766e+08  1.3468458980693957e+08  1.5613813888055936e+08  1.2447409938362329e+08  1.3196945477440435e+08  1.1630474708381724e+08  2.4708113180396327e+08  1.2370420136671609e+08  1.0408037822303492e+08  9.3181662711576581e+07  6.0271908312213451e+07  7.9455761432623848e+07  6.2151243440198921e+07  7.5954341652415946e+07  6.3736728563317470e+07  7.8448122095071957e+07  6.3484738715217471e+07  7.8448122095071793e+07  6.3736728563316219e+07  7.5954341652414992e+07  6.2151243440197110e+07  7.9455761432624027e+07  6.0271908312213935e+07  9.3181662711578548e+07  1.0408037822303051e+08  1.2370420136671205e+08  2.4708113180395034e+08  5.6690262926355398e+08  4.5271798525488269e+08  1.7430092184918588e+08  3.3570993997838694e+08  2.0041143624746248e+08  3.1369959349767822e+08  2.5423601726820949e+08  3.1854405201247603e+08  2.8704264532010710e+08  3.2552443469115323e+08  2.9788448204884475e+08  3.2552443469115257e+08  2.8704264532010722e+08  3.1854405201247525e+08  2.5423601726821017e+08  3.1369959349767590e+08  2.0041143624746177e+08  3.3570993997838128e+08  1.7430092184917885e+08  4.5271798525487113e+08  5.6690262926353824e+08  8.8372609707453787e+08  1.2897175626547658e+09  7.8627473254524076e+08  1.0316395603757695e+09  6.5924185013674700e+08  8.3110532384602213e+08  5.8336548480288899e+08  7.0064097290122569e+08  5.4890151343388486e+08  6.3913899251403701e+08  5.3920414256204128e+08  6.3913899251403451e+08  5.4890151343388176e+08  7.0064097290121830e+08  5.8336548480288112e+08  8.3110532384600437e+08  6.5924185013673377e+08  1.0316395603757408e+09  7.8627473254521978e+08  1.2897175626547239e+09  8.8372609707451391e+08  </DataArray> 
</PointData> 
</Piece>
</UnstructuredGrid>
</VTKFile>