<?xml version="1.0"?>
<VTKFile type="UnstructuredGrid"  version="0.1"  >
<UnstructuredGrid>
<Piece  NumberOfPoints="13994" NumberOfCells="27604">
<Points>
<DataArray  type="Float64"  NumberOfComponents="3"  format="ascii">0 0 0  0 0.002 0  0 0.012 0  0.02 0.012 0  0.02 0.002 0  0.02 0 0  0 0.00018991218723181 0  0 0.0003733069980565314 0  0 0.0005291058521180011 0  0 0.0006498368539013445 0  0 0.0007536755098046806 0  0 0.0008517785356707968 0  0 0.0009480373746127394 0  0 0.001043725399826676 0  0 0.001139352859843888 0  0 0.001234980319861256 0  0 0.001330607779878751 0  0 0.001426235239895836 0  0 0.001521862699913337 0  0 0.001617490159930668 0  0 0.001713117619947918 0  0 0.001808745079965419 0  0 0.00190437253998255 0  0 0.002099315255484767 0  0 0.00219863051096945 0  0 0.002297945766454132 0  0 0.002397261021938822 0  0 0.002496576277423643 0  0 0.002595891532908487 0  0 0.002695206788393201 0  0 0.002794522043877884 0  0 0.002893837299362567 0  0 0.002993152554847297 0  0 0.003092681927103184 0  0 0.003193251726535867 0  0 0.003297217623563905 0  0 0.003412055643439157 0  0 0.003556206383341719 0  0 0.00373832862847297 0  0 0.003934412277764292 0  0 0.004132269451364158 0  0 0.004330165071839649 0  0 0.004528060692314851 0  0 0.004725956312789485 0  0 0.004923851933264119 0  0 0.005121747553738754 0  0 0.005319643174213387 0  0 0.005517538794688026 0  0 0.005715434415163353 0  0 0.00591333003563883 0  0 0.006111225656113617 0  0 0.006309121276588279 0  0 0.006507016897063628 0  0 0.006704912517539083 0  0 0.006902808138013848 0  0 0.007100703758489355 0  0 0.007298599378965707 0  0 0.00749649499944143 0  0 0.007694390619917074 0  0 0.007892286240393405 0  0 0.008090181860869756 0  0 0.008288077481346107 0  0 0.008485973101822112 0  0 0.008683868722297605 0  0 0.008881764342773803 0  0 0.009079659963250154 0  0 0.009277555583726452 0  0 0.009475451204201943 0  0 0.009673346824677437 0  0 0.009871242445153522 0  0 0.01006909055712404 0  0 0.01026501958268966 0  0 0.01044620416271123 0  0 0.01058894488656577 0  0 0.0107031139712953 0  0 0.0108068497950327 0  0 0.01090734303176106 0  0 0.01100684744514782 0  0 0.01110616270063268 0  0 0.01120547795611743 0  0 0.0113047932116027 0  0 0.01140410846708803 0  0 0.01150342372257336 0  0 0.01160273897805869 0  0 0.01170205423354402 0  0 0.01180136948902934 0  0 0.01190068474451467 0  9.978975395281022e-05 0.012 0  0.0001995795079056199 0.012 0  0.0002993692618584289 0.012 0  0.0003991590158112439 0.012 0  0.0004989487697640555 0.012 0  0.0005987385237168579 0.012 0  0.0006985282776696451 0.012 0  0.0007983180316224271 0.012 0  0.000898107785575209 0.012 0  0.0009978975395279867 0.012 0  0.001097903761155907 0.012 0  0.00119897444176409 0.012 0  0.001303552401813303 0.012 0  0.001419441874278495 0.012 0  0.001565665351390316 0.012 0  0.001749734577628449 0.012 0  0.001946961243490195 0.012 0  0.002145776300130266 0.012 0  0.002344617406455583 0.012 0  0.002543458512780745 0.012 0  0.002742299619105691 0.012 0  0.002941140725430647 0.012 0  0.003139981831755724 0.012 0  0.003338822938080718 0.012 0  0.003537664044405765 0.012 0  0.003736505150730789 0.012 0  0.003935346257055665 0.012 0  0.004134187363380482 0.012 0  0.004333028469705492 0.012 0  0.004531869576030592 0.012 0  0.004730710682355693 0.012 0  0.004929551788680701 0.012 0  0.005128392895005586 0.012 0  0.005327234001330656 0.012 0  0.005526075107655759 0.012 0  0.00572491621398086 0.012 0  0.005923757320305807 0.012 0  0.006122598426630523 0.012 0  0.006321439532955485 0.012 0  0.006520280639280587 0.012 0  0.006719121745605689 0.012 0  0.006917962851930744 0.012 0  0.007116803958255627 0.012 0  0.007315645064580652 0.012 0  0.007514486170905753 0.012 0  0.007713327277230856 0.012 0  0.007912168383555849 0.012 0  0.008111009489880579 0.012 0  0.008309850596205249 0.012 0  0.00850869170252992 0.012 0  0.008707532808854836 0.012 0  0.008906373915180277 0.012 0  0.009105215021505809 0.012 0  0.009304056127831339 0.012 0  0.009502897234156595 0.012 0  0.009701738340481325 0.012 0  0.00990057944680612 0.012 0  0.01009942055313165 0.012 0  0.01029826165945792 0.012 0  0.01049710276578432 0.012 0  0.01069594387211056 0.012 0  0.01089478497843628 0.012 0  0.01109362608476181 0.012 0  0.01129246719108743 0.012 0  0.01149130829741358 0.012 0  0.01169014940373998 0.012 0  0.01188899051006637 0.012 0  0.01208783161639276 0.012 0  0.01228667272271916 0.012 0  0.01248551382904555 0.012 0  0.01268435493537189 0.012 0  0.0128831960416977 0.012 0  0.01308203714802323 0.012 0  0.01328087825434876 0.012 0  0.01347971936067482 0.012 0  0.01367856046700121 0.012 0  0.01387740157332761 0.012 0  0.014076242679654 0.012 0  0.0142750837859804 0.012 0  0.01447392489230679 0.012 0  0.01467276599863288 0.012 0  0.01487160710495845 0.012 0  0.01507044821128398 0.012 0  0.01526928931760951 0.012 0  0.01546813042393538 0.012 0  0.01566697153026177 0.012 0  0.01586581263658817 0.012 0  0.01606465374291456 0.012 0  0.01626349484924096 0.012 0  0.01646233595556735 0.012 0  0.01666117706189375 0.012 0  0.01686001816822014 0.012 0  0.01705885927454654 0.012 0  0.01725770038087293 0.012 0  0.01745654148719933 0.012 0  0.01765538259352572 0.012 0  0.01785422369985126 0.012 0  0.01805303875649182 0.012 0  0.01825026542235476 0.012 0  0.01843433464859586 0.012 0  0.0185805581257116 0.012 0  0.01869644759817871 0.012 0  0.01880102555822882 0.012 0  0.01890209623883762 0.012 0  0.01900210246046605 0.012 0  0.01910189221441937 0.012 0  0.01920168196837277 0.012 0  0.01930147172232618 0.012 0  0.01940126147627958 0.012 0  0.01950105123023298 0.012 0  0.01960084098418639 0.012 0  0.01970063073813979 0.012 0  0.0198004204920932 0.012 0  0.0199002102460466 0.012 0  0.02 0.01190068474451468 0  0.02 0.01180136948902936 0  0.02 0.01170205423354404 0  0.02 0.01160273897805911 0  0.02 0.01150342372257466 0  0.02 0.0114041084670902 0  0.02 0.01130479321160574 0  0.02 0.01120547795612128 0  0.02 0.01110616270063682 0  0.02 0.01100684744515223 0  0.02 0.01090734303176592 0  0.02 0.01080684979503809 0  0.02 0.0107031139713015 0  0.02 0.01058894488657366 0  0.02 0.01044620416272257 0  0.02 0.01026501958270403 0  0.02 0.0100690905571399 0  0.02 0.009871242445170739 0  0.02 0.009673346824695263 0  0.02 0.009475451204219894 0  0.02 0.009277555583745276 0  0.02 0.009079659963270658 0  0.02 0.008881764342796038 0  0.02 0.008683868722321421 0  0.02 0.008485973101846803 0  0.02 0.008288077481371333 0  0.02 0.008090181860895874 0  0.02 0.007892286240421254 0  0.02 0.007694390619946956 0  0.02 0.007496494999471631 0  0.02 0.007298599378996185 0  0.02 0.007100703758521427 0  0.02 0.006902808138045967 0  0.02 0.006704912517569632 0  0.02 0.00650701689709391 0  0.02 0.00630912127661829 0  0.02 0.006111225656141982 0  0.02 0.005913330035665646 0  0.02 0.005715434415189312 0  0.02 0.005517538794713476 0  0.02 0.005319643174237913 0  0.02 0.005121747553761661 0  0.02 0.004923851933285327 0  0.02 0.00472595631280901 0  0.02 0.004528060692333383 0  0.02 0.004330165071857877 0  0.02 0.004132269451381683 0  0.02 0.003934412277780621 0  0.02 0.003738328628487856 0  0.02 0.003556206383353586 0  0.02 0.003412055643447466 0  0.02 0.003297217623570428 0  0.02 0.003193251726541566 0  0.02 0.003092681927108373 0  0.02 0.002993152554852059 0  0.02 0.002893837299367244 0  0.02 0.002794522043882504 0  0.02 0.002695206788397242 0  0.02 0.002595891532911922 0  0.02 0.002496576277426601 0  0.02 0.002397261021941282 0  0.02 0.002297945766455962 0  0.02 0.002198630510970641 0  0.02 0.002099315255485321 0  0.02 0.001904372539982662 0  0.02 0.00180874507996562 0  0.02 0.001713117619948905 0  0.02 0.001617490159932045 0  0.02 0.001521862699915003 0  0.02 0.001426235239897792 0  0.02 0.001330607779880864 0  0.02 0.00123498031986434 0  0.02 0.001139352859847767 0  0.02 0.001043725399830725 0  0.02 0.0009480373746167511 0  0.02 0.0008517785356742583 0  0.02 0.0007536755098076359 0  0.02 0.0006498368539039022 0  0.02 0.0005291058521203294 0  0.02 0.0003733069980584446 0  0.02 0.0001899121872328039 0  0.01980198019801899 0 0  0.01960396039603798 0 0  0.01940594059405751 0 0  0.01920792079207809 0 0  0.01900990099009879 0 0  0.0188118811881195 0 0  0.01861386138614021 0 0  0.01841584158416092 0 0  0.01821782178218163 0 0  0.01801980198020233 0 0  0.01782178217822304 0 0  0.01762376237624375 0 0  0.01742574257426446 0 0  0.01722772277228516 0 0  0.01702970297030587 0 0  0.01683168316832658 0 0  0.01663366336634692 0 0  0.01643564356436677 0 0  0.01623762376238662 0 0  0.01603960396040647 0 0  0.01584158415842632 0 0  0.01564356435644616 0 0  0.01544554455446567 0 0  0.01524752475248552 0 0  0.0150495049505056 0 0  0.0148514851485262 0 0  0.01465346534654691 0 0  0.01445544554456762 0 0  0.01425742574258833 0 0  0.01405940594060903 0 0  0.01386138613862974 0 0  0.01366336633665045 0 0  0.01346534653467116 0 0  0.01326732673269186 0 0  0.01306930693071257 0 0  0.01287128712873307 0 0  0.01267326732675304 0 0  0.01247524752477289 0 0  0.01227722772279274 0 0  0.01207920792081283 0 0  0.01188118811883343 0 0  0.01168316831685414 0 0  0.01148514851487485 0 0  0.0112871287128953 0 0  0.01108910891091523 0 0  0.01089108910893508 0 0  0.01069306930695493 0 0  0.01049504950497506 0 0  0.01029702970299571 0 0  0.01009900990101629 0 0  0.009900990099036141 0 0  0.009702970297055254 0 0  0.009504950495074242 0 0  0.009306930693093381 0 0  0.009108910891113039 0 0  0.008910891089132891 0 0  0.00871287128715266 0 0  0.008514851485171908 0 0  0.008316831683190898 0 0  0.008118811881209886 0 0  0.007920792079228876 0 0  0.007722772277247866 0 0  0.007524752475266856 0 0  0.007326732673285883 0 0  0.007128712871305429 0 0  0.00693069306932528 0 0  0.006732673267345128 0 0  0.006534653465364517 0 0  0.006336633663383506 0 0  0.006138613861402497 0 0  0.005940594059421487 0 0  0.005742574257440475 0 0  0.005544554455459467 0 0  0.005346534653478721 0 0  0.005148514851498497 0 0  0.004950495049518343 0 0  0.00475247524
[...]
<PointData  Scalars="T [K]"> 
<DataArray  type="Float64"  Name="T [K]"  format="ascii">3.0000000000000000e+02  3.4279112877309211e+02  4.5000000000000006e+02  4.5000000000000006e+02  3.4279112850412287e+02  3.0000000000000000e+02  3.0406246369360724e+02  3.0798555702029751e+02  3.1131837455295522e+02  3.1390104613104290e+02  3.1612239190198693e+02  3.1822108089488648e+02  3.2028036274631313e+02  3.2232746296839991e+02  3.2437333675984360e+02  3.2641927071391717e+02  3.2846524712471648e+02  3.3051132809015633e+02  3.3255748606928995e+02  3.3460375667811184e+02  3.3665017522991315e+02  3.3869677092571430e+02  3.4074363916360267e+02  3.4385434057431127e+02  3.4491736311328657e+02  3.4598030312695721e+02  3.4704320516993215e+02  3.4810608562718971e+02  3.4916895232955341e+02  3.5023182006174551e+02  3.5129468493871906e+02  3.5235755713096000e+02  3.5342043309304921e+02  3.5448560988267519e+02  3.5556193066685637e+02  3.5667461344993717e+02  3.5790367084751097e+02  3.5944647368776350e+02  3.6139572772341575e+02  3.6349448309374742e+02  3.6561229422711796e+02  3.6773058517965649e+02  3.6984898371773238e+02  3.7196747044470726e+02  3.7408604323002470e+02  3.7620472212426336e+02  3.7832351439121919e+02  3.8044241349270737e+02  3.8256144978829963e+02  3.8468061192237155e+02  3.8679988219628109e+02  3.8891929626185868e+02  3.9103886905438850e+02  3.9315857536834454e+02  3.9527844818083474e+02  3.9739849296515450e+02  3.9951870011555309e+02  4.0163909749374022e+02  4.0375967856755653e+02  4.0588048573792258e+02  4.0800147679952443e+02  4.1012271492850999e+02  4.1224418918105221e+02  4.1436590936054051e+02  4.1648791446485819e+02  4.1861020576732778e+02  4.2073280558742948e+02  4.2285573335131318e+02  4.2497904663606118e+02  4.2710275777840292e+02  4.2922634727660119e+02  4.3132983980642462e+02  4.3327550150760658e+02  4.3480865215994726e+02  4.3603518649932863e+02  4.3714984237792243e+02  4.3822986401297106e+02  4.3929946930272911e+02  4.4036728725560664e+02  4.4143534712416221e+02  4.4250371388060614e+02  4.4357243798278330e+02  4.4464155767042871e+02  4.4571113073721546e+02  4.4678133906838320e+02  4.4785234461272881e+02  4.4892472619121276e+02  4.4999999999999994e+02  4.5000000000000006e+02  4.4999999999999994e+02  4.5000000000000006e+02  4.5000000000000000e+02  4.5000000000000000e+02  4.5000000000000000e+02  4.5000000000000000e+02  4.5000000000000000e+02  4.5000000000000006e+02  4.5000000000000000e+02  4.5000000000000006e+02  4.5000000000000000e+02  4.5000000000000000e+02  4.4999999999999989e+02  4.4999999999999994e+02  4.4999999999999994e+02  4.5000000000000000e+02  4.5000000000000006e+02  4.5000000000000006e+02  4.5000000000000000e+02  4.4999999999999994e+02  4.4999999999999994e+02  4.5000000000000000e+02  4.4999999999999994e+02  4.5000000000000000e+02  4.5000000000000006e+02  4.4999999999999989e+02  4.4999999999999994e+02  4.4999999999999994e+02  4.5000000000000000e+02  4.5000000000000000e+02  4.5000000000000000e+02  4.4999999999999994e+02  4.5000000000000006e+02  4.5000000000000000e+02  4.4999999999999994e+02  4.5000000000000000e+02  4.5000000000000000e+02  4.5000000000000006e+02  4.5000000000000006e+02  4.5000000000000000e+02  4.5000000000000000e+02  4.5000000000000000e+02  4.5000000000000000e+02  4.5000000000000000e+02  4.5000000000000006e+02  4.5000000000000006e+02  4.4999999999999994e+02  4.5000000000000000e+02  4.5000000000000000e+02  4.5000000000000000e+02  4.4999999999999994e+02  4.4999999999999994e+02  4.5000000000000000e+02  4.5000000000000000e+02  4.4999999999999994e+02  4.4999999999999994e+02  4.5000000000000000e+02  4.5000000000000000e+02  4.4999999999999994e+02  4.5000000000000006e+02  4.5000000000000006e+02  4.5000000000000006e+02  4.5000000000000000e+02  4.5000000000000000e+02  4.5000000000000000e+02  4.5000000000000000e+02  4.5000000000000000e+02  4.4999999999999994e+02  4.5000000000000000e+02  4.4999999999999994e+02  4.5000000000000000e+02  4.5000000000000000e+02  4.5000000000000000e+02  4.5000000000000006e+02  4.5000000000000000e+02  4.5000000000000000e+02  4.5000000000000000e+02  4.4999999999999994e+02  4.5000000000000000e+02  4.5000000000000006e+02  4.5000000000000000e+02  4.5000000000000006e+02  4.5000000000000000e+02  4.4999999999999989e+02  4.5000000000000000e+02  4.5000000000000000e+02  4.5000000000000000e+02  4.4999999999999994e+02  4.4999999999999994e+02  4.5000000000000000e+02  4.5000000000000006e+02  4.4999999999999994e+02  4.5000000000000000e+02  4.5000000000000000e+02  4.5000000000000000e+02  4.5000000000000000e+02  4.5000000000000000e+02  4.5000000000000000e+02  4.5000000000000006e+02  4.5000000000000006e+02  4.5000000000000006e+02  4.5000000000000000e+02  4.5000000000000000e+02  4.5000000000000006e+02  4.5000000000000006e+02  4.5000000000000000e+02  4.5000000000000006e+02  4.4999999999999994e+02  4.5000000000000000e+02  4.5000000000000006e+02  4.4999999999999994e+02  4.5000000000000000e+02  4.4892472624795323e+02  4.4785234471265034e+02  4.4678133919404661e+02  4.4571113087867280e+02  4.4464155783128103e+02  4.4357243817682848e+02  4.4250371412574509e+02  4.4143534743564578e+02  4.4036728763759129e+02  4.3929946974836179e+02  4.3822986450874873e+02  4.3714984291163779e+02  4.3603518706273650e+02  4.3480865275806826e+02  4.3327550218223047e+02  4.3132984071227872e+02  4.2922634818402304e+02  4.2710275724219963e+02  4.2497904513732601e+02  4.2285573338436956e+02  4.2073280528503705e+02  4.1861020704371339e+02  4.1648791527972566e+02  4.1436590636477285e+02  4.1224418275690704e+02  4.1012271395664123e+02  4.0800147597392220e+02  4.0588048577781564e+02  4.0375967999246046e+02  4.0163909944507373e+02  3.9951870106304614e+02  3.9739849594523054e+02  3.9527844797790652e+02  3.9315857425592435e+02  3.9103887022712695e+02  3.8891929713021653e+02  3.8679988372965005e+02  3.8468060348363036e+02  3.8256145366025095e+02  3.8044241450621075e+02  3.7832351383996911e+02  3.7620472138046046e+02  3.7408604190791146e+02  3.7196746869664270e+02  3.6984898482729739e+02  3.6773058716128145e+02  3.6561229745990818e+02  3.6349448436554314e+02  3.6139572655262634e+02  3.5944647338270727e+02  3.5790367042472923e+02  3.5667461294835704e+02  3.5556193014068117e+02  3.5448560935830392e+02  3.5342043258590809e+02  3.5235755680576551e+02  3.5129468451243451e+02  3.5023181943636308e+02  3.4916895237774992e+02  3.4810608530304717e+02  3.4704320481986156e+02  3.4598030283705168e+02  3.4491736283481509e+02  3.4385434029898630e+02  3.4074363890962422e+02  3.3869677069177686e+02  3.3665017502516281e+02  3.3460375650792179e+02  3.3255748592135177e+02  3.3051132789694930e+02  3.2846524681014398e+02  3.2641927039421898e+02  3.2437333649919799e+02  3.2232746275777373e+02  3.2028036257807895e+02  3.1822108076355511e+02  3.1612239180266363e+02  3.1390104605944310e+02  3.1131837450549932e+02  3.0798555699421740e+02  3.0406246368258741e+02  3.0000000000000000e+02  3.0000000000000000e+02  3.0000000000000000e+02  3.0000000000000006e+02  3.0000000000000000e+02  3.0000000000000000e+02  3.0000000000000000e+02  3.0000000000000000e+02  3.0000000000000006e+02  2.9999999999999994e+02  3.0000000000000006e+02  3.0000000000000000e+02  3.0000000000000006e+02  3.0000000000000006e+02  3.0000000000000000e+02  3.0000000000000000e+02  3.0000000000000000e+02  3.0000000000000000e+02  2.9999999999999994e+02  3.0000000000000000e+02  3.0000000000000000e+02  3.0000000000000006e+02  3.0000000000000000e+02  2.9999999999999994e+02  3.0000000000000006e+02  3.0000000000000000e+02  3.0000000000000000e+02  3.0000000000000000e+02  3.0000000000000000e+02  3.0000000000000000e+02  3.0000000000000000e+02  3.0000000000000000e+02  3.0000000000000000e+02  3.0000000000000000e+02  2.9999999999999994e+02  2.9999999999999994e+02  3.0000000000000000e+02  3.0000000000000000e+02  3.0000000000000000e+02  3.0000000000000000e+02  3.0000000000000000e+02  3.0000000000000000e+02  3.0000000000000006e+02  2.9999999999999994e+02  3.0000000000000000e+02  3.0000000000000000e+02  3.0000000000000000e+02  3.0000000000000000e+02  3.0000000000000000e+02  3.0000000000000000e+02  3.0000000000000000e+02  3.0000000000000006e+02  3.0000000000000000e+02  3.0000000000000000e+02  3.0000000000000000e+02  3.0000000000000000e+02  2.9999999999999994e+02  3.0000000000000000e+02  3.0000000000000000e+02  3.0000000000000006e+02  3.0000000000000000e+02  3.0000000000000000e+02  3.0000000000000006e+02  3.0000000000000000e+02  3.0000000000000000e+02  3.0000000000000000e+02  3.0000000000000000e+02  3.0000000000000000e+02  3.0000000000000000e+02  3.0000000000000000e+02  3.0000000000000006e+02  2.9999999999999994e+02  3.0000000000000000e+02  3.0000000000000000e+02  3.0000000000000000e+02  3.0000000000000000e+02  3.0000000000000000e+02  3.0000000000000006e+02  3.0000000000000000e+02  3.0000000000000000e+02  3.0000000000000000e+02  3.0000000000000000e+02  3.0000000000000000e+02  3.0000000000000000e+02  2.9999999999999994e+02  3.0000000000000000e+02  3.0000000000000000e+02  3.0000000000000006e+02  3.0000000000000000e+02  3.0000000000000000e+02  3.0000000000000000e+02  3.0000000000000000e+02  3.0000000000000000e+02  3.0000000000000000e+02  2.9999999999999994e+02  3.0000000000000000e+02  3.0000000000000000e+02  3.0000000000000000e+02  3.0000000000000000e+02  3.0000000000000000e+02  3.4279248398452808e+02  3.4279382660421044e+02  3.4279512778731652e+02  3.4279638931450609e+02  3.4279761557925963e+02  3.4279880909538338e+02  3.4279997340306244e+02  3.4280110731236925e+02  3.4280221547691457e+02  3.4280329586136543e+02  3.4280435432414890e+02  3.4280538867750420e+02  3.4280640028375223e+02  3.4280738919025157e+02  3.4280835469999158e+02  3.4280930403193997e+02  3.4281023138374746e+02  3.4281113982830266e+02  3.4281202708735310e+02  3.4281289803304031e+02  3.4281375038860864e+02  3.4281458526718831e+02  3.4281540235636800e+02  3.4281620324875178e+02  3.4281698620961998e+02  3.4281775579760807e+02  3.4281850609834157e+02  3.4281924343165150e+02  3.4281996485009375e+02  3.4282067071924223e+02  3.4282136238373721e+02  3.4282203848382863e+02  3.4282270101618678e+02  3.4282334775024799e+02  3.4282398387929243e+02  3.4282460419516053e+02  3.4282521061349297e+02  3.4282580580584749e+02  3.4282638513827237e+02  3.4282695416648500e+02  3.4282750762008845e+02  3.4282805085246014e+02  3.4282858079354037e+02  3.4282909944417179e+02  3.4282960467689304e+02  3.4283009804147855e+02  3.4283058010776176e+02  3.4283105010247021e+02  3.4283151035554096e+02  3.4283195688715261e+02  3.4283239347795114e+02  3.4283281839961046e+02  3.4283323248940883e+02  3.4283363723293166e+02  3.4283402881757064e+02  3.4283441245152113e+02  3.4283478364720941e+02  3.4283514596919241e+02  3.4283549685554482e+02  3.4283583807929682e+02  3.4283617006654680e+02  3.4283649264772220e+02  3.4283680383938844e+02  3.4283710608776045e+02  3.4283739976777849e+02  3.4283768244192453e+02  3.4283795725577340e+02  3.4283822149111461e+02  3.4283847755490359e+02  3.4283872447299302e+02  3.4283896230311291e+02  3.4283919139678721e+02  3.4283941120319207e+02  3.4283962344925351e+02  3.4283982532805959e+02  3.4284002036282737e+02  3.4284020585863863e+02  3.4284038350920628e+02  3.4284055284287302e+02  3.4284071353494573e+02  3.4284086572485626e+02  3.4284101019431557e+02  3.4284114667037738e+02  3.4284127455955809e+02  3.4284139540563547e+02  3.4284150757471087e+02  3.4284161169400051e+02  3.4284170804827198e+02  3.4284179704251204e+02  3.4284187758036609e+02  3.4284195051533726e+02  3.4284201595231281e+02  3.4284207312355670e+02  3.4284212311119421e+02  3.4284216492715080e+02  3.4284219964456793e+02  3.4284222631193364e+02  3.4284224552255705e+02  3.4284225689321255e+02  3.4284226070912575e+02  3.4284225679051718e+02  3.4284224552352839e+02  3.4284222640691780e+02  3.4284219972912473e+02  3.4284216483425990e+02  3.4284212312969055e+02  3.4284207315418956e+02  3.4284201585322540e+02  3.4284195050307193e+02  3.4284187770980600e+02  3.4284179696018521e+02  3.4284170818347303e+02  3.4284161163745279e+02  3.4284150722439540e+02  3.4284139544706181e+02  3.4284127471004416e+02  3.4284114684066401e+02  3.4284101025764369e+02  3.4284086585390901e+02  3.4284071340564174e+02  3.4284055256709649e+02  3.4284038314190474e+02  3.4284020608583103e+02  3.4284002047294922e+02  3.4283982567850330e+02  3.4283962328145157e+02  3.4283941133579231e+02  3.4283919162458068e+02  3.4283896233713938e+02  3.4283872437456569e+02  3.4283847736703012e+02  3.4283822160334842e+02  3.4283795734634066e+02  3.4283768249479613e+02  3.4283739923950930e+02  3.4283710668919161e+02  3.4283680416227560e+02  3.4283649188277957e+02  3.4283617034513463e+02  3.4283583888026186e+02  3.4283549736944349e+02  3.4283514546759073e+02  3.4283478431541772e+02  3.4283441210356870e+02  3.4283402940393506e+02  3.4283363628847098e+02  3.4283323290798000e+02  3.4283281905322218e+02  3.4283239296465388e+02  3.4283195738142336e+02  3.4283150957510929e+02  3.4283105048277139e+02  3.4283058021194540e+02  3.4283009818486124e+02  3.4282960445723825e+02  3.4282909883518067e+02  3.4282858038516741e+02  3.4282805136686346e+02  3.4282750841872740e+02  3.4282695440610877e+02  3.4282638520381732e+02  3.4282580581106691e+02  3.4282521071300135e+02  3.4282460425115318e+02  3.4282398389055612e+02  3.4282334773771089e+02  3.4282270100055933e+02  3.4282203847452342e+02  3.4282136238433861e+02  3.4282067075329684e+02  3.4281996492054407e+02  3.4281924348650296e+02  3.4281850646516074e+02  3.4281775527469171e+02  3.4281698649775410e+02  3.4281620268487939e+02  3.4281540264275554e+02  3.4281458519938172e+02  3.4281375044202929e+02  3.4281289816230770e+02  3.4281202708789743e+02  3.4281113972546802e+02  3.4281023136037163e+02  3.4280930405491785e+02  3.4280835461599315e+02  3.4280738898877189e+02  3.4280640005253917e+02  3.4280538847060672e+02  3.4280435420945196e+02  3.4280329575968750e+02  3.4280221535288734e+02  3.4280110716808201e+02  3.4279997322720584e+02  3.4279880885061772e+02  3.4279761532566789e+02  3.4279638908466194e+02  3.4279512757001635e+02  3.4279382633738868e+02  3.4279248371508464e+02  3.9634259450247964e+02  3.9668723405746823e+02  3.9534519145806132e+02  3.7571876744940039e+02  3.7578522718523374e+02  3.7428845404319367e+02  3.7431119061557399e+02  3.6903107653850640e+02  3.6779386945727146e+02  3.6771291718755828e+02  4.1637120684182543e+02  4.1643135439012536e+02  4.1838389221690585e+02  4.1841757375592778e+02  3.5832517570758296e+02  3.5832517567814818e+02  3.6119951568463415e+02  4.3545364739107418e+02  4.3534731173456402e+02  4.2290645179795962e+02  3.6060859633217257e+02  3.5786281688409264e+02  3.5786281689412738e+02  3.6047985628511532e+02  3.6023236311951337e+02  3.5682687931113588e+02  3.5685016594383063e+02  4.2416571660499096e+02  4.2440017443415667e+02  3.9668222760341490e+02  3.9605392387896012e+02  3.5478561018744443e+02  3.5473610180788211e+02  3.9597678683562322e+02  3.9616472737554159e+02  3.5631385195539826e+02  3.5363285018793675e+02  3.5260515666187257e+02  3.5227157402942271e+02  3.5246711291335487e+02  4.3174863606004078e+02  4.3166356273095499e+02  3.5173813462116163e+02  3.5173813490458878e+02  3.5178660003842828e+02  4.3201597368316374e+02  4.3225766917927189e+02  3.7405555573643471e+02  3.7411698219763770e+02  3.5161242521551628e+02  3.5245012355055184e+02  4.0197443870726300e+02  3.5219249164843939e+02  3.5228349740793482e+02  4.3274030035626436e+02  4.3287731146212212e+02  3.8205270155172809e+02  3.5145065346462320e+02  4.0935295358370269e+02  4.0347398462103740e+02  3.8305612451155582e+02  3.8260347833641208e+02  3.8298711575219608e+02  4.0940413641230612e+02  3.8945722040316667e+02  3.8950038979548930e+02  4.1109012694505731e+02  4.1147199993717811e+02  4.1111986333328298e+02  4.1108632997617121e+02  3.5168556525754707e+02  3.5168556524389112e+02  3.5097719586033094e+02  4.4173826552841712e+02  4.4173826309005506e+02  3.5051626137657155e+02  3.5048016267043147e+02  3.6956154393530483e+02  3.6937633933518856e+02  3.5008838270197089e+02  3.6086166651096249e+02  3.4994752362376062e+02  3.5006467404404469e+02  3.5017369094293423e+02  3.5009240078175327e+02  3.6619868817111438e+02  3.6620474962107983e+02  4.0938953433834587e+02  3.8165936274492725e+02  3.6149355419335751e+02  3.8114473604115676e+02  4.3171753451138210e+02  4.0494058523582891e+02  4.0511493774022694e+02  4.3097262644615830e+02  4.3630343851994121e+02  3.8761289835941085e+02  3.8773928641021473e+02  4.1630088194185231e+02  3.4956690318985926e+02  3.4953504120663445e+02  3.4944406021745584e+02  4.1880302755768844e+02  4.3672274794778406e+02  3.4926340182032783e+02  4.3709717272202062e+02  3.5879748373970034e+02  3.5879748356295306e+02  3.4917855824839461e+02  3.8846740217902101e+02  3.9073380544669402e+02  3.4897429597974428e+02  3.7152748059930695e+02  4.4392391479246777e+02  4.4383249755674916e+02  3.5869963242468333e+02  4.3543956046000471e+02  4.3543956115433406e+02  4.2316520244359839e+02  4.2293096532658711e+02  3.7177135104110437e+02  3.5931458846300382e+02  3.5931458887709005e+02  4.0796473134973411e+02  3.6124584822358617e+02  3.6158406226965667e+02  4.0008417232909852e+02  4.0009535124411150e+02  4.2016642121315317e+02  3.8472997304535539e+02  3.8477191427110029e+02  3.4881792744251959e+02  3.4882858900809788e+02  3.6124605240926172e+02  3.4876364619144761e+02  4.1999661983367349e+02  3.7089587840522091e+02  3.6180746249555830e+02  3.6481995655097467e+02  4.3864618441021258e+02  4.3863747916649601e+02  3.7183154340199337e+02  4.2161755088909803e+02  4.2154660540538828e+02  3.4840664463646169e+02  4.3888787648873102e+02  3.8404862085498127e+02  4.0556533740954103e+02  3.8522137851745293e+02  3.9249369020064535e+02  3.9956398996503390e+02  3.9935091075333531e+02  3.4824543044272792e+02  4.0694331928739325e+02  3.4835380140212072e+02  3.5569227205804447e+02  3.4836372830321790e+02  3.6589649081170734e+02  3.6589706187159777e+02  3.9349242019133663e+02  4.3943562526175634e+02  4.3931602253595986e+02  3.9318365046373225e+02  3.4808873789551080e+02  3.4808873835929597e+02  3.8470427409534381e+02  4.4031084132709941e+02  4.2671574461091831e+02  4.4031627874483604e+02  4.2703447503468118e+02  3.5386825025395262e+02  4.3983804107007018e+02  3.4802714768994696e+02  3.9466563739443637e+02  3.7941949130333074e+02  4.3980706155093384e+02  3.6709522107168976e+02  3.7925027557053693e+02  3.5499515917497342e+02  3.5499515966502685e+02  3.4785607274766841e+02  4.2307758354437317e+02  4.2286369010571082e+02  3.5407371160393905e+02  4.0602982858100279e+02  3.4781551756767544e+02  3.4780045080959837e+02  3.6617818710176857e+02  3.6622719186618303e+02  3.5912544686301635e+02  3.5912544694794866e+02  3.4788820241535427e+02  3.4781895750135823e+02  3.5429971256442997e+02  3.4772277109981269e+02  3.4782925215978224e+02  3.5853334161485560e+02  3.5638532167052557e+02  3.4772176070497375e+02  3.4768508225036834e+02  3.4768508195958867e+02  4.0574447278396588e+02  4.1011675720557434e+02  4.4046381048307234e+02  3.4763469540338139e+02  4.2960116244999978e+02  4.4519188108844492e+02  4.4519188107255377e+02  4.4055931215381884e+02  4.2584151549070839e+02  3.4749706172964716e+02  3.4749706162084630e+02  4.1105125813525802e+02  4.4050080415193111e+02  3.5394988500394106e+02  3.4744791108193618e+02  3.5669180521390649e+02  4.2821149041723527e+02  4.1095416714431701e+02  3.6883973650446057e+02  3.5483991805118455e+02  4.1543037258628141e+02  4.4100614887478019e+02  3.9612547475262079e+02  3.9604585625121013e+02  3.8186944941137210e+02  3.4734384327376495e+02  3.5326081706953704e+02  3.7659686468389236e+02  4.2893340500741215e+02  3.4734345895509892e+02  4.0401194248867915e+02  3.9678712481795657e+02  3.8780145108800320e+02  3.7384880603457952e+02  3.8791553572157517e+02  3.4730615264066245e+02  4.3030442721763148e+02  4.0105389104714396e+02  3.7970223520293609e+02  3.7986166955785723e+02  4.1578941158491347e+02  3.5362600497183820e+02  3.5362600481372425e+02  3.9035088748636997e+02  3.9028099182166369e+02  3.6350928405003674e+02  4.0843312199792604e+02  3.541353594132868