<?xml version="1.0"?>
<VTKFile type="UnstructuredGrid"  version="0.1"  >
<UnstructuredGrid>
<Piece  NumberOfPoints="13994" NumberOfCells="27604">
<Points>
<DataArray  type="Float64"  NumberOfComponents="3"  format="ascii">0 0 0  0 0.002 0  0 0.012 0  0.02 0.012 0  0.02 0.002 0  0.02 0 0  0 0.00018991218723181 0  0 0.0003733069980565314 0  0 0.0005291058521180011 0  0 0.0006498368539013445 0  0 0.0007536755098046806 0  0 0.0008517785356707968 0  0 0.0009480373746127394 0  0 0.001043725399826676 0  0 0.001139352859843888 0  0 0.001234980319861256 0  0 0.001330607779878751 0  0 0.001426235239895836 0  0 0.001521862699913337 0  0 0.001617490159930668 0  0 0.001713117619947918 0  0 0.001808745079965419 0  0 0.00190437253998255 0  0 0.002099315255484767 0  0 0.00219863051096945 0  0 0.002297945766454132 0  0 0.002397261021938822 0  0 0.002496576277423643 0  0 0.002595891532908487 0  0 0.002695206788393201 0  0 0.002794522043877884 0  0 0.002893837299362567 0  0 0.002993152554847297 0  0 0.003092681927103184 0  0 0.003193251726535867 0  0 0.003297217623563905 0  0 0.003412055643439157 0  0 0.003556206383341719 0  0 0.00373832862847297 0  0 0.003934412277764292 0  0 0.004132269451364158 0  0 0.004330165071839649 0  0 0.004528060692314851 0  0 0.004725956312789485 0  0 0.004923851933264119 0  0 0.005121747553738754 0  0 0.005319643174213387 0  0 0.005517538794688026 0  0 0.005715434415163353 0  0 0.00591333003563883 0  0 0.006111225656113617 0  0 0.006309121276588279 0  0 0.006507016897063628 0  0 0.006704912517539083 0  0 0.006902808138013848 0  0 0.007100703758489355 0  0 0.007298599378965707 0  0 0.00749649499944143 0  0 0.007694390619917074 0  0 0.007892286240393405 0  0 0.008090181860869756 0  0 0.008288077481346107 0  0 0.008485973101822112 0  0 0.008683868722297605 0  0 0.008881764342773803 0  0 0.009079659963250154 0  0 0.009277555583726452 0  0 0.009475451204201943 0  0 0.009673346824677437 0  0 0.009871242445153522 0  0 0.01006909055712404 0  0 0.01026501958268966 0  0 0.01044620416271123 0  0 0.01058894488656577 0  0 0.0107031139712953 0  0 0.0108068497950327 0  0 0.01090734303176106 0  0 0.01100684744514782 0  0 0.01110616270063268 0  0 0.01120547795611743 0  0 0.0113047932116027 0  0 0.01140410846708803 0  0 0.01150342372257336 0  0 0.01160273897805869 0  0 0.01170205423354402 0  0 0.01180136948902934 0  0 0.01190068474451467 0  9.978975395281022e-05 0.012 0  0.0001995795079056199 0.012 0  0.0002993692618584289 0.012 0  0.0003991590158112439 0.012 0  0.0004989487697640555 0.012 0  0.0005987385237168579 0.012 0  0.0006985282776696451 0.012 0  0.0007983180316224271 0.012 0  0.000898107785575209 0.012 0  0.0009978975395279867 0.012 0  0.001097903761155907 0.012 0  0.00119897444176409 0.012 0  0.001303552401813303 0.012 0  0.001419441874278495 0.012 0  0.001565665351390316 0.012 0  0.001749734577628449 0.012 0  0.001946961243490195 0.012 0  0.002145776300130266 0.012 0  0.002344617406455583 0.012 0  0.002543458512780745 0.012 0  0.002742299619105691 0.012 0  0.002941140725430647 0.012 0  0.003139981831755724 0.012 0  0.003338822938080718 0.012 0  0.003537664044405765 0.012 0  0.003736505150730789 0.012 0  0.003935346257055665 0.012 0  0.004134187363380482 0.012 0  0.004333028469705492 0.012 0  0.004531869576030592 0.012 0  0.004730710682355693 0.012 0  0.004929551788680701 0.012 0  0.005128392895005586 0.012 0  0.005327234001330656 0.012 0  0.005526075107655759 0.012 0  0.00572491621398086 0.012 0  0.005923757320305807 0.012 0  0.006122598426630523 0.012 0  0.006321439532955485 0.012 0  0.006520280639280587 0.012 0  0.006719121745605689 0.012 0  0.006917962851930744 0.012 0  0.007116803958255627 0.012 0  0.007315645064580652 0.012 0  0.007514486170905753 0.012 0  0.007713327277230856 0.012 0  0.007912168383555849 0.012 0  0.008111009489880579 0.012 0  0.008309850596205249 0.012 0  0.00850869170252992 0.012 0  0.008707532808854836 0.012 0  0.008906373915180277 0.012 0  0.009105215021505809 0.012 0  0.009304056127831339 0.012 0  0.009502897234156595 0.012 0  0.009701738340481325 0.012 0  0.00990057944680612 0.012 0  0.01009942055313165 0.012 0  0.01029826165945792 0.012 0  0.01049710276578432 0.012 0  0.01069594387211056 0.012 0  0.01089478497843628 0.012 0  0.01109362608476181 0.012 0  0.01129246719108743 0.012 0  0.01149130829741358 0.012 0  0.01169014940373998 0.012 0  0.01188899051006637 0.012 0  0.01208783161639276 0.012 0  0.01228667272271916 0.012 0  0.01248551382904555 0.012 0  0.01268435493537189 0.012 0  0.0128831960416977 0.012 0  0.01308203714802323 0.012 0  0.01328087825434876 0.012 0  0.01347971936067482 0.012 0  0.01367856046700121 0.012 0  0.01387740157332761 0.012 0  0.014076242679654 0.012 0  0.0142750837859804 0.012 0  0.01447392489230679 0.012 0  0.01467276599863288 0.012 0  0.01487160710495845 0.012 0  0.01507044821128398 0.012 0  0.01526928931760951 0.012 0  0.01546813042393538 0.012 0  0.01566697153026177 0.012 0  0.01586581263658817 0.012 0  0.01606465374291456 0.012 0  0.01626349484924096 0.012 0  0.01646233595556735 0.012 0  0.01666117706189375 0.012 0  0.01686001816822014 0.012 0  0.01705885927454654 0.012 0  0.01725770038087293 0.012 0  0.01745654148719933 0.012 0  0.01765538259352572 0.012 0  0.01785422369985126 0.012 0  0.01805303875649182 0.012 0  0.01825026542235476 0.012 0  0.01843433464859586 0.012 0  0.0185805581257116 0.012 0  0.01869644759817871 0.012 0  0.01880102555822882 0.012 0  0.01890209623883762 0.012 0  0.01900210246046605 0.012 0  0.01910189221441937 0.012 0  0.01920168196837277 0.012 0  0.01930147172232618 0.012 0  0.01940126147627958 0.012 0  0.01950105123023298 0.012 0  0.01960084098418639 0.012 0  0.01970063073813979 0.012 0  0.0198004204920932 0.012 0  0.0199002102460466 0.012 0  0.02 0.01190068474451468 0  0.02 0.01180136948902936 0  0.02 0.01170205423354404 0  0.02 0.01160273897805911 0  0.02 0.01150342372257466 0  0.02 0.0114041084670902 0  0.02 0.01130479321160574 0  0.02 0.01120547795612128 0  0.02 0.01110616270063682 0  0.02 0.01100684744515223 0  0.02 0.01090734303176592 0  0.02 0.01080684979503809 0  0.02 0.0107031139713015 0  0.02 0.01058894488657366 0  0.02 0.01044620416272257 0  0.02 0.01026501958270403 0  0.02 0.0100690905571399 0  0.02 0.009871242445170739 0  0.02 0.009673346824695263 0  0.02 0.009475451204219894 0  0.02 0.009277555583745276 0  0.02 0.009079659963270658 0  0.02 0.008881764342796038 0  0.02 0.008683868722321421 0  0.02 0.008485973101846803 0  0.02 0.008288077481371333 0  0.02 0.008090181860895874 0  0.02 0.007892286240421254 0  0.02 0.007694390619946956 0  0.02 0.007496494999471631 0  0.02 0.007298599378996185 0  0.02 0.007100703758521427 0  0.02 0.006902808138045967 0  0.02 0.006704912517569632 0  0.02 0.00650701689709391 0  0.02 0.00630912127661829 0  0.02 0.006111225656141982 0  0.02 0.005913330035665646 0  0.02 0.005715434415189312 0  0.02 0.005517538794713476 0  0.02 0.005319643174237913 0  0.02 0.005121747553761661 0  0.02 0.004923851933285327 0  0.02 0.00472595631280901 0  0.02 0.004528060692333383 0  0.02 0.004330165071857877 0  0.02 0.004132269451381683 0  0.02 0.003934412277780621 0  0.02 0.003738328628487856 0  0.02 0.003556206383353586 0  0.02 0.003412055643447466 0  0.02 0.003297217623570428 0  0.02 0.003193251726541566 0  0.02 0.003092681927108373 0  0.02 0.002993152554852059 0  0.02 0.002893837299367244 0  0.02 0.002794522043882504 0  0.02 0.002695206788397242 0  0.02 0.002595891532911922 0  0.02 0.002496576277426601 0  0.02 0.002397261021941282 0  0.02 0.002297945766455962 0  0.02 0.002198630510970641 0  0.02 0.002099315255485321 0  0.02 0.001904372539982662 0  0.02 0.00180874507996562 0  0.02 0.001713117619948905 0  0.02 0.001617490159932045 0  0.02 0.001521862699915003 0  0.02 0.001426235239897792 0  0.02 0.001330607779880864 0  0.02 0.00123498031986434 0  0.02 0.001139352859847767 0  0.02 0.001043725399830725 0  0.02 0.0009480373746167511 0  0.02 0.0008517785356742583 0  0.02 0.0007536755098076359 0  0.02 0.0006498368539039022 0  0.02 0.0005291058521203294 0  0.02 0.0003733069980584446 0  0.02 0.0001899121872328039 0  0.01980198019801899 0 0  0.01960396039603798 0 0  0.01940594059405751 0 0  0.01920792079207809 0 0  0.01900990099009879 0 0  0.0188118811881195 0 0  0.01861386138614021 0 0  0.01841584158416092 0 0  0.01821782178218163 0 0  0.01801980198020233 0 0  0.01782178217822304 0 0  0.01762376237624375 0 0  0.01742574257426446 0 0  0.01722772277228516 0 0  0.01702970297030587 0 0  0.01683168316832658 0 0  0.01663366336634692 0 0  0.01643564356436677 0 0  0.01623762376238662 0 0  0.01603960396040647 0 0  0.01584158415842632 0 0  0.01564356435644616 0 0  0.01544554455446567 0 0  0.01524752475248552 0 0  0.0150495049505056 0 0  0.0148514851485262 0 0  0.01465346534654691 0 0  0.01445544554456762 0 0  0.01425742574258833 0 0  0.01405940594060903 0 0  0.01386138613862974 0 0  0.01366336633665045 0 0  0.01346534653467116 0 0  0.01326732673269186 0 0  0.01306930693071257 0 0  0.01287128712873307 0 0  0.01267326732675304 0 0  0.01247524752477289 0 0  0.01227722772279274 0 0  0.01207920792081283 0 0  0.01188118811883343 0 0  0.01168316831685414 0 0  0.01148514851487485 0 0  0.0112871287128953 0 0  0.01108910891091523 0 0  0.01089108910893508 0 0  0.01069306930695493 0 0  0.01049504950497506 0 0  0.01029702970299571 0 0  0.01009900990101629 0 0  0.009900990099036141 0 0  0.009702970297055254 0 0  0.009504950495074242 0 0  0.009306930693093381 0 0  0.009108910891113039 0 0  0.008910891089132891 0 0  0.00871287128715266 0 0  0.008514851485171908 0 0  0.008316831683190898 0 0  0.008118811881209886 0 0  0.007920792079228876 0 0  0.007722772277247866 0 0  0.007524752475266856 0 0  0.007326732673285883 0 0  0.007128712871305429 0 0  0.00693069306932528 0 0  0.006732673267345128 0 0  0.006534653465364517 0 0  0.006336633663383506 0 0  0.006138613861402497 0 0  0.005940594059421487 0 0  0.005742574257440475 0 0  0.005544554455459467 0 0  0.005346534653478721 0 0  0.005148514851498497 0 0  0.004950495049518343 0 0  0.00475247524
[...]
<PointData  Vectors="U [m]"> 
<DataArray  type="Float64"  Name="U [m]"  NumberOfComponents="3" format="ascii">3.5920614168808055e-06 -2.0469180679010697e-06 0.0000000000000000e+00  2.9376500789555762e-06 -2.0490774881751750e-06 0.0000000000000000e+00  0.0000000000000000e+00 0.0000000000000000e+00 0.0000000000000000e+00  6.8406637243823504e-06 0.0000000000000000e+00 0.0000000000000000e+00  3.9030102678158679e-06 -2.0490902079506621e-06 0.0000000000000000e+00  3.2485928104361327e-06 -2.0469283035596361e-06 0.0000000000000000e+00  3.5324704077398756e-06 -2.0513750774351700e-06 0.0000000000000000e+00  3.4748581771282435e-06 -2.0548211391349683e-06 0.0000000000000000e+00  3.4258420664952176e-06 -2.0571506932965726e-06 0.0000000000000000e+00  3.3877337885064947e-06 -2.0585856944073522e-06 0.0000000000000000e+00  3.3548874177089147e-06 -2.0595548105246242e-06 0.0000000000000000e+00  3.3237555255233759e-06 -2.0602309460149900e-06 0.0000000000000000e+00  3.2931294622141640e-06 -2.0606626116418409e-06 0.0000000000000000e+00  3.2625346175935924e-06 -2.0609305371356737e-06 0.0000000000000000e+00  3.2317912882478578e-06 -2.0609809503638866e-06 0.0000000000000000e+00  3.2009677751931761e-06 -2.0607631236460257e-06 0.0000000000000000e+00  3.1698078646789654e-06 -2.0604120027018091e-06 0.0000000000000000e+00  3.1384805891417000e-06 -2.0597596697700939e-06 0.0000000000000000e+00  3.1067791220373121e-06 -2.0589338468874161e-06 0.0000000000000000e+00  3.0747095914618453e-06 -2.0578492350791031e-06 0.0000000000000000e+00  3.0421728925972457e-06 -2.0564457223758535e-06 0.0000000000000000e+00  3.0087583832677711e-06 -2.0546991447052103e-06 0.0000000000000000e+00  2.9746721020907400e-06 -2.0523794201062564e-06 0.0000000000000000e+00  2.9018692351488212e-06 -2.0415876313347311e-06 0.0000000000000000e+00  2.8674718407388550e-06 -2.0333696958271943e-06 0.0000000000000000e+00  2.8342381473362072e-06 -2.0248870027083965e-06 0.0000000000000000e+00  2.8017533829612275e-06 -2.0162637974783889e-06 0.0000000000000000e+00  2.7696838594619437e-06 -2.0074504753539089e-06 0.0000000000000000e+00  2.7379369873350597e-06 -1.9983337398616342e-06 0.0000000000000000e+00  2.7065303816440705e-06 -1.9890955117954851e-06 0.0000000000000000e+00  2.6753364040094541e-06 -1.9796115811124869e-06 0.0000000000000000e+00  2.6443610965565675e-06 -1.9699188568174437e-06 0.0000000000000000e+00  2.6135410803482046e-06 -1.9599704589877320e-06 0.0000000000000000e+00  2.5828395787150096e-06 -1.9497900994705972e-06 0.0000000000000000e+00  2.5519687277003794e-06 -1.9392193287263886e-06 0.0000000000000000e+00  2.5202033651922564e-06 -1.9280629112026518e-06 0.0000000000000000e+00  2.4852411661959352e-06 -1.9154527090651754e-06 0.0000000000000000e+00  2.4415642335821990e-06 -1.8991476594617985e-06 0.0000000000000000e+00  2.3868029459974407e-06 -1.8777804006259699e-06 0.0000000000000000e+00  2.3281279893156468e-06 -1.8538659842737786e-06 0.0000000000000000e+00  2.2692309043435774e-06 -1.8288592103920632e-06 0.0000000000000000e+00  2.2104646217863644e-06 -1.8027709978810196e-06 0.0000000000000000e+00  2.1520620917744527e-06 -1.7756911215556939e-06 0.0000000000000000e+00  2.0938664971261362e-06 -1.7476834279689518e-06 0.0000000000000000e+00  2.0358007121479522e-06 -1.7186994612422709e-06 0.0000000000000000e+00  1.9778662591661983e-06 -1.6886154356657978e-06 0.0000000000000000e+00  1.9201183009797752e-06 -1.6575409836683894e-06 0.0000000000000000e+00  1.8624466625849203e-06 -1.6254354306445215e-06 0.0000000000000000e+00  1.8050117412473465e-06 -1.5923123022339248e-06 0.0000000000000000e+00  1.7476821355547491e-06 -1.5581827292033526e-06 0.0000000000000000e+00  1.6904158235951301e-06 -1.5230970140594368e-06 0.0000000000000000e+00  1.6332011169727048e-06 -1.4869629451797017e-06 0.0000000000000000e+00  1.5760844472829719e-06 -1.4496798516803484e-06 0.0000000000000000e+00  1.5190993869058514e-06 -1.4115540347344666e-06 0.0000000000000000e+00  1.4620765786155976e-06 -1.3723050229896513e-06 0.0000000000000000e+00  1.4052248886266826e-06 -1.3320361687813536e-06 0.0000000000000000e+00  1.3483092882731322e-06 -1.2907377672958030e-06 0.0000000000000000e+00  1.2915082311962827e-06 -1.2484008811561763e-06 0.0000000000000000e+00  1.2347001564956106e-06 -1.2050204562322261e-06 0.0000000000000000e+00  1.1780446549440639e-06 -1.1605560115316230e-06 0.0000000000000000e+00  1.1212857417467542e-06 -1.1151833122981367e-06 0.0000000000000000e+00  1.0645545543956362e-06 -1.0686774378055142e-06 0.0000000000000000e+00  1.0078995170166662e-06 -1.0211493393973575e-06 0.0000000000000000e+00  9.5118843079768465e-07 -9.7256357821353259e-07 0.0000000000000000e+00  8.9452550697346072e-07 -9.2287235639340845e-07 0.0000000000000000e+00  8.3782463567882242e-07 -8.7215719982317272e-07 0.0000000000000000e+00  7.8125319109499672e-07 -8.2048938518495955e-07 0.0000000000000000e+00  7.2449725150961810e-07 -7.6771393618987071e-07 0.0000000000000000e+00  6.6789846202750964e-07 -7.1382880783973051e-07 0.0000000000000000e+00  6.1112588852197543e-07 -6.5883390892071340e-07 0.0000000000000000e+00  5.5454990019124702e-07 -6.0293828113933028e-07 0.0000000000000000e+00  4.9835944459745153e-07 -5.4649131924579524e-07 0.0000000000000000e+00  4.4639590187855727e-07 -4.9330775128771555e-07 0.0000000000000000e+00  4.0546385233617925e-07 -4.5085828344268988e-07 0.0000000000000000e+00  3.7264352426083046e-07 -4.1646269081218408e-07 0.0000000000000000e+00  3.4284907228157307e-07 -3.8488763523956177e-07 0.0000000000000000e+00  3.1396980675113509e-07 -3.5399146534412448e-07 0.0000000000000000e+00  2.8536529297783430e-07 -3.2314923852614348e-07 0.0000000000000000e+00  2.5685523683530997e-07 -2.9208621597193881e-07 0.0000000000000000e+00  2.2831407805728879e-07 -2.6075813356134834e-07 0.0000000000000000e+00  1.9976215999240236e-07 -2.2914744187854865e-07 0.0000000000000000e+00  1.7120217852833313e-07 -1.9724571713565730e-07 0.0000000000000000e+00  1.4264740963606380e-07 -1.6506411047238107e-07 0.0000000000000000e+00  1.1410325077493496e-07 -1.3262258786621345e-07 0.0000000000000000e+00  8.5528629026214639e-08 -9.9892034581543860e-08 0.0000000000000000e+00  5.7002876291344961e-08 -6.6876973985918801e-08 0.0000000000000000e+00  2.8451124482786536e-08 -3.3580775938756827e-08 0.0000000000000000e+00  3.3782755012559093e-08 2.8510829226462578e-08 0.0000000000000000e+00  6.7612452828271428e-08 5.6767417980499927e-08 0.0000000000000000e+00  1.0143119103293549e-07 8.4757362110125902e-08 0.0000000000000000e+00  1.3527914290650873e-07 1.1247944339790068e-07 0.0000000000000000e+00  1.6910644434813700e-07 1.3993132041857296e-07 0.0000000000000000e+00  2.0295390504750238e-07 1.6709488719802157e-07 0.0000000000000000e+00  2.3678604137032133e-07 1.9401042927250513e-07 0.0000000000000000e+00  2.7066306109716035e-07 2.2063317459445581e-07 0.0000000000000000e+00  3.0449051190895396e-07 2.4696102843591286e-07 0.0000000000000000e+00  3.3832525763182034e-07 2.7304729668736841e-07 0.0000000000000000e+00  3.7226193031341509e-07 2.9890584835709072e-07 0.0000000000000000e+00  4.0655845948550158e-07 3.2474787080467346e-07 0.0000000000000000e+00  4.4203412206786980e-07 3.5120718470416690e-07 0.0000000000000000e+00  4.8139034508531356e-07 3.8019367134637712e-07 0.0000000000000000e+00  5.3105690951219993e-07 4.1620989689352509e-07 0.0000000000000000e+00  5.9352372439978451e-07 4.6065610051882566e-07 0.0000000000000000e+00  6.6037911571627796e-07 5.0733965526638949e-07 0.0000000000000000e+00  7.2791772347281842e-07 5.5325277091393801e-07 0.0000000000000000e+00  7.9543916972596233e-07 5.9821252529080235e-07 0.0000000000000000e+00  8.6308379489298112e-07 6.4194298853669937e-07 0.0000000000000000e+00  9.3067430481610577e-07 6.8464376279545500e-07 0.0000000000000000e+00  9.9842770147212351e-07 7.2618951946519126e-07 0.0000000000000000e+00  1.0660797777492780e-06 7.6665501143931265e-07 0.0000000000000000e+00  1.1338773907169272e-06 8.0602676648249061e-07 0.0000000000000000e+00  1.2017268758417401e-06 8.4425231298467456e-07 0.0000000000000000e+00  1.2695852616676509e-06 8.8132205842392539e-07 0.0000000000000000e+00  1.3373795126574874e-06 9.1725063228399379e-07 0.0000000000000000e+00  1.4051601011511623e-06 9.5218945176080978e-07 0.0000000000000000e+00  1.4732206704074082e-06 9.8592793606636426e-07 0.0000000000000000e+00  1.5412001947533829e-06 1.0185326509505854e-06 0.0000000000000000e+00  1.6093125736157381e-06 1.0499754771846023e-06 0.0000000000000000e+00  1.6773065664318351e-06 1.0801707838148371e-06 0.0000000000000000e+00  1.7453439348525831e-06 1.1094326656171327e-06 0.0000000000000000e+00  1.8135545729556243e-06 1.1374202873684211e-06 0.0000000000000000e+00  1.8816248519905827e-06 1.1642638082941134e-06 0.0000000000000000e+00  1.9497748065545066e-06 1.1899857894363294e-06 0.0000000000000000e+00  2.0179939882893428e-06 1.2145974920920100e-06 0.0000000000000000e+00  2.0862513686834701e-06 1.2379799511582404e-06 0.0000000000000000e+00  2.1544968118738244e-06 1.2602375312078300e-06 0.0000000000000000e+00  2.2228417886548917e-06 1.2813603759069943e-06 0.0000000000000000e+00  2.2911650154015927e-06 1.3011981989503680e-06 0.0000000000000000e+00  2.3594539142006298e-06 1.3199863079832433e-06 0.0000000000000000e+00  2.4279452203946278e-06 1.3374917019318120e-06 0.0000000000000000e+00  2.4961752129740762e-06 1.3538633894542756e-06 0.0000000000000000e+00  2.5644495730933203e-06 1.3692058380331583e-06 0.0000000000000000e+00  2.6329134944065210e-06 1.3833520028494463e-06 0.0000000000000000e+00  2.7013665500967744e-06 1.3962448858649521e-06 0.0000000000000000e+00  2.7698298786228135e-06 1.4079330742727815e-06 0.0000000000000000e+00  2.8382748265190575e-06 1.4185265827219560e-06 0.0000000000000000e+00  2.9067274711895756e-06 1.4279305924660099e-06 0.0000000000000000e+00  2.9751787141734376e-06 1.4361549106133692e-06 0.0000000000000000e+00  3.0436796262875247e-06 1.4432030778296953e-06 0.0000000000000000e+00  3.1121903220418814e-06 1.4490747470571417e-06 0.0000000000000000e+00  3.1805615582416600e-06 1.4537421796355231e-06 0.0000000000000000e+00  3.2490890087713335e-06 1.4573191038673956e-06 0.0000000000000000e+00  3.3176348679994351e-06 1.4596193271764601e-06 0.0000000000000000e+00  3.3861000354312714e-06 1.4607841131560109e-06 0.0000000000000000e+00  3.4545507356231364e-06 1.4607685628724039e-06 0.0000000000000000e+00  3.5230002415887708e-06 1.4597188544080234e-06 0.0000000000000000e+00  3.5915666281025889e-06 1.4572529844680881e-06 0.0000000000000000e+00  3.6600275631253086e-06 1.4537785441796375e-06 0.0000000000000000e+00  3.7284486973423293e-06 1.4491429763875575e-06 0.0000000000000000e+00  3.7970039148871762e-06 1.4432038613751078e-06 0.0000000000000000e+00  3.8654542875628148e-06 1.4361803312881098e-06 0.0000000000000000e+00  3.9339508902369790e-06 1.4279281460870457e-06 0.0000000000000000e+00  4.0024671833567663e-06 1.4185609166086003e-06 0.0000000000000000e+00  4.0708750603587591e-06 1.4079355613912820e-06 0.0000000000000000e+00  4.1392524410439340e-06 1.3962109029423005e-06 0.0000000000000000e+00  4.2077340647937591e-06 1.3832509818626807e-06 0.0000000000000000e+00  4.2760596941925019e-06 1.3691907773141508e-06 0.0000000000000000e+00  4.3444888806041759e-06 1.3540244100495759e-06 0.0000000000000000e+00  4.4129261905647466e-06 1.3375670632442716e-06 0.0000000000000000e+00  4.4811532259113698e-06 1.3199857516064766e-06 0.0000000000000000e+00  4.5495475916755229e-06 1.3012290339015043e-06 0.0000000000000000e+00  4.6178697176851129e-06 1.2813181374316952e-06 0.0000000000000000e+00  4.6862124406770270e-06 1.2602356875905120e-06 0.0000000000000000e+00  4.7543743221734770e-06 1.2379390429655644e-06 0.0000000000000000e+00  4.8226600203321375e-06 1.2146087373803458e-06 0.0000000000000000e+00  4.8909121667714712e-06 1.1900091608030381e-06 0.0000000000000000e+00  4.9590226016832926e-06 1.1642983029827382e-06 0.0000000000000000e+00  5.0271509844505656e-06 1.1374076911881785e-06 0.0000000000000000e+00  5.0953022825785368e-06 1.1094681747737317e-06 0.0000000000000000e+00  5.1634395567164843e-06 1.0802400376113406e-06 0.0000000000000000e+00  5.2313706657644034e-06 1.0499325157180432e-06 0.0000000000000000e+00  5.2994523627378009e-06 1.0185128287963061e-06 0.0000000000000000e+00  5.3674463855919419e-06 9.8591197507856451e-07 0.0000000000000000e+00  5.4354726662505003e-06 9.5217751112618982e-07 0.0000000000000000e+00  5.5033179535065330e-06 9.1725082836465808e-07 0.0000000000000000e+00  5.5711132123524445e-06 8.8130543772284115e-07 0.0000000000000000e+00  5.6389778961040715e-06 8.4424637947814417e-07 0.0000000000000000e+00  5.7067785663398683e-06 8.0601920013464539e-07 0.0000000000000000e+00  5.7745683029949598e-06 7.6662445973893184e-07 0.0000000000000000e+00  5.8422282453823325e-06 7.2617892570838935e-07 0.0000000000000000e+00  5.9099789185748340e-06 6.8463513836660673e-07 0.0000000000000000e+00  5.9775796952390250e-06 6.4193417719197879e-07 0.0000000000000000e+00  6.0452183121071138e-06 5.9813043452798540e-07 0.0000000000000000e+00  6.1127175877370528e-06 5.5327186568725878e-07 0.0000000000000000e+00  6.1802825217865425e-06 5.0733138687759308e-07 0.0000000000000000e+00  6.2471480549350040e-06 4.6065752854768624e-07 0.0000000000000000e+00  6.3096277864604703e-06 4.1620439281612861e-07 0.0000000000000000e+00  6.3592507811777680e-06 3.8018411600828092e-07 0.0000000000000000e+00  6.3986241519991483e-06 3.5121421751449398e-07 0.0000000000000000e+00  6.4341025081387696e-06 3.2475002596119491e-07 0.0000000000000000e+00  6.4684030865871761e-06 2.9890617559299735e-07 0.0000000000000000e+00  6.5023389403426331e-06 2.7304701161487338e-07 0.0000000000000000e+00  6.5361735508782565e-06 2.4696046781260644e-07 0.0000000000000000e+00  6.5700012819693882e-06 2.2063155431650885e-07 0.0000000000000000e+00  6.6038780388660011e-06 1.9400865064085600e-07 0.0000000000000000e+00  6.6377100258725628e-06 1.6709286084508932e-07 0.0000000000000000e+00  6.6715569930079510e-06 1.3992923310657520e-07 0.0000000000000000e+00  6.7053843761083544e-06 1.1247808949996915e-07 0.0000000000000000e+00  6.7392324229017291e-06 8.4756421018310391e-08 0.0000000000000000e+00  6.7730512336767023e-06 5.6766823261897665e-08 0.0000000000000000e+00  6.8068809639223042e-06 2.8510526765306332e-08 0.0000000000000000e+00  6.8122129101012461e-06 -3.3580782477201268e-08 0.0000000000000000e+00  6.7836614672479232e-06 -6.6877005909383084e-08 0.0000000000000000e+00  6.7551359859943984e-06 -9.9892099726875507e-08 0.0000000000000000e+00  6.7265615773820906e-06 -1.3262266645958852e-07 0.0000000000000000e+00  6.6980176215056621e-06 -1.6506414838739442e-07 0.0000000000000000e+00  6.6694630874978249e-06 -1.9724565113529683e-07 0.0000000000000000e+00  6.6409034110966778e-06 -2.2914724384991409e-07 0.0000000000000000e+00  6.6123519472541123e-06 -2.6075782557169643e-07 0.0000000000000000e+00  6.5838112773888759e-06 -2.9208591863881566e-07 0.0000000000000000e+00  6.5553016427229134e-06 -3.2314902009287692e-07 0.0000000000000000e+00  6.5266974777070664e-06 -3.5399136025383711e-07 0.0000000000000000e+00  6.4978184597605441e-06 -3.8488761253843557e-07 0.0000000000000000e+00  6.4680242455919688e-06 -4.1646266688924329e-07 0.0000000000000000e+00  6.4352041712473707e-06 -4.5085808527702640e-07 0.0000000000000000e+00  6.3942728828465946e-06 -4.9330717349601400e-07 0.0000000000000000e+00  6.3423113358678314e-06 -5.4649108884990719e-07 0.0000000000000000e+00  6.2861230983817590e-06 -6.0294223691151575e-07 0.0000000000000000e+00  6.2295437612571457e-06 -6.5884681895948785e-07 0.0000000000000000e+00  6.1727584555325273e-06 -7.1384916148154837e-07 0.0000000000000000e+00  6.1161554171366361e-06 -7.6772105113109560e-07 0.0000000000000000e+00  6.0594155719878638e-06 -8.2049364852139744e-07 0.0000000000000000e+00  6.0028468772752282e-06 -8.7215128125191996e-07 0.0000000000000000e+00  5.9461589039504883e-06 -9.2287449623678309e-07 0.0000000000000000e+00  5.8894741442340762e-06 -9.7257554377001788e-07 0.0000000000000000e+00  5.8327747095286594e-06 -1.0211688278693281e-06 0.0000000000000000e+00  5.7760890199055931e-06 -1.0686856236092425e-06 0.0000000000000000e+00  5.7193976219352154e-06 -1.1151948586333436e-06 0.0000000000000000e+00  5.6626214867882209e-06 -1.1605732093246373e-06 0.0000000000000000e+00  5.6059377889307810e-06 -1.2050338638175043e-06 0.0000000000000000e+00  5.5491304292981328e-06 -1.2483990534417769e-06 0.0000000000000000e+00  5.4923370676126994e-06 -1.2907398282990543e-06 0.0000000000000000e+00  5.4354101447568206e-06 -1.3320328863011501e-06 0.0000000000000000e+00  5.3786332541058141e-06 -1.3722933417852070e-06 0.0000000000000000e+00  5.3215861481594609e-06 -1.4115571770950762e-06 0.0000000000000000e+00  5.2645735345755092e-06 -1.4496798471040948e-06 0.0000000000000000e+00  5.2074627297692943e-06 -1.4869591819609173e-06 0.0000000000000000e+00  5.1502469963406123e-06 -1.5230870651781163e-06 0.0000000000000000e+00  5.0929981968114804e-06 -1.5582152726336328e-06 0.0000000000000000e+00  5.0356164612220217e-06 -1.5923154091594676e-06 0.0000000000000000e+00  4.9782267235755425e-06 -1.6254437951538024e-06 0.0000000000000000e+00  4.9205502162848273e-06 -1.6575556650084117e-06 0.0000000000000000e+00  4.8627941243227116e-06 -1.6886249541133611e-06 0.0000000000000000e+00  4.8048592223779487e-06 -1.7187135874563833e-06 0.0000000000000000e+00  4.7468034007207942e-06 -1.7476947651134200e-06 0.0000000000000000e+00  4.6885876085196736e-06 -1.7757004196244241e-06 0.0000000000000000e+00  4.6301733942123368e-06 -1.8027828759840553e-06 0.0000000000000000e+00  4.5714112964061814e-06 -1.8288474787824351e-06 0.0000000000000000e+00  4.5125214485159086e-06 -1.8538494257926163e-06 0.0000000000000000e+00  4.4538790963142766e-06 -1.8777881166984250e-06 0.0000000000000000e+00  4.3991032646189887e-06 -1.8991538170861937e-06 0.0000000000000000e+00  4.3554322652802471e-06 -1.9154626165656673e-06 0.0000000000000000e+00  4.3204719951363381e-06 -1.9280762038238865e-06 0.0000000000000000e+00  4.2887047808499485e-06 -1.9392346792977940e-06 0.0000000000000000e+00  4.2578319264997894e-06 -1.9498071292443028e-06 0.0000000000000000e+00  4.2271277771589847e-06 -1.9599890741592412e-06 0.0000000000000000e+00  4.1963026903555372e-06 -1.9699386254120538e-06 0.0000000000000000e+00  4.1653226031018876e-06 -1.9796310291481197e-06 0.0000000000000000e+00  4.1341344260056337e-06 -1.9891069110477933e-06 0.0000000000000000e+00  4.1027248687639836e-06 -1.9983508857298436e-06 0.0000000000000000e+00  4.0709768660573130e-06 -2.0074630430769603e-06 0.0000000000000000e+00  4.0389085517075086e-06 -2.0162753710699300e-06 0.0000000000000000e+00  4.0064241217967810e-06 -2.0248996927995301e-06 0.0000000000000000e+00  3.9731895450670850e-06 -2.0333829099780567e-06 0.0000000000000000e+00  3.9387913390370343e-06 -2.0416006712332967e-06 0.0000000000000000e+00  3.8659880242642079e-06 -2.0523915150815971e-06 0.0000000000000000e+00  3.8319017320172249e-06 -2.0547105133030586e-06 0.0000000000000000e+00  3.7984876863033108e-06 -2.0564565199667971e-06 0.0000000000000000e+00  3.7659507013233216e-06 -2.0578598143665352e-06 0.0000000000000000e+00  3.7338813074758106e-06 -2.0589434254898237e-06 0.0000000000000000e+00  3.7021811423654319e-06 -2.0597693473972898e-06 0.0000000000000000e+00  3.6708546123762169e-06 -2.0604221083793110e-06 0.0000000000000000e+00  3.6396946256059012e-06 -2.0607738696255641e-06 0.0000000000000000e+00  3.6088697506200049e-06 -2.0609915917744765e-06 0.0000000000000000e+00  3.5781257109794945e-06 -2.0609408003235003e-06 0.0000000000000000e+00  3.5475303767510950e-06 -2.0606725024535874e-06 0.0000000000000000e+00  3.5169040089945601e-06 -2.0602406640284920e-06 0.0000000000000000e+00  3.4857717602708678e-06 -2.0595645039362956e-06 0.0000000000000000e+00  3.4529249409344339e-06 -2.0585954640734625e-06 0.0000000000000000e+00  3.4148159953609830e-06 -2.0571606002495264e-06 0.0000000000000000e+00  3.3657988431518092e-06 -2.0548312253558240e-06 0.0000000000000000e+00  3.3081852369906497e-06 -2.0513852983678018e-06 0.000000