<?xml version="1.0"?>
<VTKFile type="UnstructuredGrid"  version="0.1"  >
<UnstructuredGrid>
<Piece  NumberOfPoints="561" NumberOfCells="1000">
<Points>
<DataArray  type="Float64"  NumberOfComponents="3"  format="ascii">0 0 0  0.0004 0 0  0.0008 0 0  0.0012 0 0  0.0016 0 0  0.002 0 0  0.0024 0 0  0.0028 0 0  0.0032 0 0  0.0036 0 0  0.004 0 0  0.0044 0 0  0.0048 0 0  0.0052 0 0  0.005600000000000001 0 0  0.006 0 0  0.0064 0 0  0.0068 0 0  0.0072 0 0  0.0076 0 0  0.008 0 0  0.008399999999999999 0 0  0.008800000000000001 0 0  0.0092 0 0  0.009599999999999999 0 0  0.01 0 0  0.0104 0 0  0.0108 0 0  0.0112 0 0  0.0116 0 0  0.012 0 0  0.0124 0 0  0.0128 0 0  0.0132 0 0  0.0136 0 0  0.014 0 0  0.0144 0 0  0.0148 0 0  0.0152 0 0  0.0156 0 0  0.016 0 0  0.0164 0 0  0.0168 0 0  0.0172 0 0  0.0176 0 0  0.018 0 0  0.0184 0 0  0.0188 0 0  0.0192 0 0  0.0196 0 0  0.02 0 0  0 0.0012 0  0.0004 0.0012 0  0.0008 0.0012 0  0.0012 0.0012 0  0.0016 0.0012 0  0.002 0.0012 0  0.0024 0.0012 0  0.0028 0.0012 0  0.0032 0.0012 0  0.0036 0.0012 0  0.004 0.0012 0  0.0044 0.0012 0  0.0048 0.0012 0  0.0052 0.0012 0  0.005600000000000001 0.0012 0  0.006 0.0012 0  0.0064 0.0012 0  0.0068 0.0012 0  0.0072 0.0012 0  0.0076 0.0012 0  0.008 0.0012 0  0.008399999999999999 0.0012 0  0.008800000000000001 0.0012 0  0.0092 0.0012 0  0.009599999999999999 0.0012 0  0.01 0.0012 0  0.0104 0.0012 0  0.0108 0.0012 0  0.0112 0.0012 0  0.0116 0.0012 0  0.012 0.0012 0  0.0124 0.0012 0  0.0128 0.0012 0  0.0132 0.0012 0  0.0136 0.0012 0  0.014 0.0012 0  0.0144 0.0012 0  0.0148 0.0012 0  0.0152 0.0012 0  0.0156 0.0012 0  0.016 0.0012 0  0.0164 0.0012 0  0.0168 0.0012 0  0.0172 0.0012 0  0.0176 0.0012 0  0.018 0.0012 0  0.0184 0.0012 0  0.0188 0.0012 0  0.0192 0.0012 0  0.0196 0.0012 0  0.02 0.0012 0  0 0.0024 0  0.0004 0.0024 0  0.0008 0.0024 0  0.0012 0.0024 0  0.0016 0.0024 0  0.002 0.0024 0  0.0024 0.0024 0  0.0028 0.0024 0  0.0032 0.0024 0  0.0036 0.0024 0  0.004 0.0024 0  0.0044 0.0024 0  0.0048 0.0024 0  0.0052 0.0024 0  0.005600000000000001 0.0024 0  0.006 0.0024 0  0.0064 0.0024 0  0.0068 0.0024 0  0.0072 0.0024 0  0.0076 0.0024 0  0.008 0.0024 0  0.008399999999999999 0.0024 0  0.008800000000000001 0.0024 0  0.0092 0.0024 0  0.009599999999999999 0.0024 0  0.01 0.0024 0  0.0104 0.0024 0  0.0108 0.0024 0  0.0112 0.0024 0  0.0116 0.0024 0  0.012 0.0024 0  0.0124 0.0024 0  0.0128 0.0024 0  0.0132 0.0024 0  0.0136 0.0024 0  0.014 0.0024 0  0.0144 0.0024 0  0.0148 0.0024 0  0.0152 0.0024 0  0.0156 0.0024 0  0.016 0.0024 0  0.0164 0.0024 0  0.0168 0.0024 0  0.0172 0.0024 0  0.0176 0.0024 0  0.018 0.0024 0  0.0184 0.0024 0  0.0188 0.0024 0  0.0192 0.0024 0  0.0196 0.0024 0  0.02 0.0024 0  0 0.0036 0  0.0004 0.0036 0  0.0008 0.0036 0  0.0012 0.0036 0  0.0016 0.0036 0  0.002 0.0036 0  0.0024 0.0036 0  0.0028 0.0036 0  0.0032 0.0036 0  0.0036 0.0036 0  0.004 0.0036 0  0.0044 0.0036 0  0.0048 0.0036 0  0.0052 0.0036 0  0.005600000000000001 0.0036 0  0.006 0.0036 0  0.0064 0.0036 0  0.0068 0.0036 0  0.0072 0.0036 0  0.0076 0.0036 0  0.008 0.0036 0  0.008399999999999999 0.0036 0  0.008800000000000001 0.0036 0  0.0092 0.0036 0  0.009599999999999999 0.0036 0  0.01 0.0036 0  0.0104 0.0036 0  0.0108 0.0036 0  0.0112 0.0036 0  0.0116 0.0036 0  0.012 0.0036 0  0.0124 0.0036 0  0.0128 0.0036 0  0.0132 0.0036 0  0.0136 0.0036 0  0.014 0.0036 0  0.0144 0.0036 0  0.0148 0.0036 0  0.0152 0.0036 0  0.0156 0.0036 0  0.016 0.0036 0  0.0164 0.0036 0  0.0168 0.0036 0  0.0172 0.0036 0  0.0176 0.0036 0  0.018 0.0036 0  0.0184 0.0036 0  0.0188 0.0036 0  0.0192 0.0036 0  0.0196 0.0036 0  0.02 0.0036 0  0 0.0048 0  0.0004 0.0048 0  0.0008 0.0048 0  0.0012 0.0048 0  0.0016 0.0048 0  0.002 0.0048 0  0.0024 0.0048 0  0.0028 0.0048 0  0.0032 0.0048 0  0.0036 0.0048 0  0.004 0.0048 0  0.0044 0.0048 0  0.0048 0.0048 0  0.0052 0.0048 0  0.005600000000000001 0.0048 0  0.006 0.0048 0  0.0064 0.0048 0  0.0068 0.0048 0  0.0072 0.0048 0  0.0076 0.0048 0  0.008 0.0048 0  0.008399999999999999 0.0048 0  0.008800000000000001 0.0048 0  0.0092 0.0048 0  0.009599999999999999 0.0048 0  0.01 0.0048 0  0.0104 0.0048 0  0.0108 0.0048 0  0.0112 0.0048 0  0.0116 0.0048 0  0.012 0.0048 0  0.0124 0.0048 0  0.0128 0.0048 0  0.0132 0.0048 0  0.0136 0.0048 0  0.014 0.0048 0  0.0144 0.0048 0  0.0148 0.0048 0  0.0152 0.0048 0  0.0156 0.0048 0  0.016 0.0048 0  0.0164 0.0048 0  0.0168 0.0048 0  0.0172 0.0048 0  0.0176 0.0048 0  0.018 0.0048 0  0.0184 0.0048 0  0.0188 0.0048 0  0.0192 0.0048 0  0.0196 0.0048 0  0.02 0.0048 0  0 0.006 0  0.0004 0.006 0  0.0008 0.006 0  0.0012 0.006 0  0.0016 0.006 0  0.002 0.006 0  0.0024 0.006 0  0.0028 0.006 0  0.0032 0.006 0  0.0036 0.006 0  0.004 0.006 0  0.0044 0.006 0  0.0048 0.006 0  0.0052 0.006 0  0.005600000000000001 0.006 0  0.006 0.006 0  0.0064 0.006 0  0.0068 0.006 0  0.0072 0.006 0  0.0076 0.006 0  0.008 0.006 0  0.008399999999999999 0.006 0  0.008800000000000001 0.006 0  0.0092 0.006 0  0.009599999999999999 0.006 0  0.01 0.006 0  0.0104 0.006 0  0.0108 0.006 0  0.0112 0.006 0  0.0116 0.006 0  0.012 0.006 0  0.0124 0.006 0  0.0128 0.006 0  0.0132 0.006 0  0.0136 0.006 0  0.014 0.006 0  0.0144 0.006 0  0.0148 0.006 0  0.0152 0.006 0  0.0156 0.006 0  0.016 0.006 0  0.0164 0.006 0  0.0168 0.006 0  0.0172 0.006 0  0.0176 0.006 0  0.018 0.006 0  0.0184 0.006 0  0.0188 0.006 0  0.0192 0.006 0  0.0196 0.006 0  0.02 0.006 0  0 0.007200000000000001 0  0.0004 0.007200000000000001 0  0.0008 0.007200000000000001 0  0.0012 0.007200000000000001 0  0.0016 0.007200000000000001 0  0.002 0.007200000000000001 0  0.0024 0.007200000000000001 0  0.0028 0.007200000000000001 0  0.0032 0.007200000000000001 0  0.0036 0.007200000000000001 0  0.004 0.007200000000000001 0  0.0044 0.007200000000000001 0  0.0048 0.007200000000000001 0  0.0052 0.007200000000000001 0  0.005600000000000001 0.007200000000000001 0  0.006 0.007200000000000001 0  0.0064 0.007200000000000001 0  0.0068 0.007200000000000001 0  0.0072 0.007200000000000001 0  0.0076 0.007200000000000001 0  0.008 0.007200000000000001 0  0.008399999999999999 0.007200000000000001 0  0.008800000000000001 0.007200000000000001 0  0.0092 0.007200000000000001 0  0.009599999999999999 0.007200000000000001 0  0.01 0.007200000000000001 0  0.0104 0.007200000000000001 0  0.0108 0.007200000000000001 0  0.0112 0.007200000000000001 0  0.0116 0.007200000000000001 0  0.012 0.007200000000000001 0  0.0124 0.007200000000000001 0  0.0128 0.007200000000000001 0  0.0132 0.007200000000000001 0  0.0136 0.007200000000000001 0  0.014 0.007200000000000001 0  0.0144 0.007200000000000001 0  0.0148 0.007200000000000001 0  0.0152 0.007200000000000001 0  0.0156 0.007200000000000001 0  0.016 0.007200000000000001 0  0.0164 0.007200000000000001 0  0.0168 0.007200000000000001 0  0.0172 0.007200000000000001 0  0.0176 0.007200000000000001 0  0.018 0.007200000000000001 0  0.0184 0.007200000000000001 0  0.0188 0.007200000000000001 0  0.0192 0.007200000000000001 0  0.0196 0.007200000000000001 0  0.02 0.007200000000000001 0  0 0.008400000000000001 0  0.0004 0.008400000000000001 0  0.0008 0.008400000000000001 0  0.0012 0.008400000000000001 0  0.0016 0.008400000000000001 0  0.002 0.008400000000000001 0  0.0024 0.008400000000000001 0  0.0028 0.008400000000000001 0  0.0032 0.008400000000000001 0  0.0036 0.008400000000000001 0  0.004 0.008400000000000001 0  0.0044 0.008400000000000001 0  0.0048 0.008400000000000001 0  0.0052 0.008400000000000001 0  0.005600000000000001 0.008400000000000001 0  0.006 0.008400000000000001 0  0.0064 0.008400000000000001 0  0.0068 0.008400000000000001 0  0.0072 0.008400000000000001 0  0.0076 0.008400000000000001 0  0.008 0.008400000000000001 0  0.008399999999999999 0.008400000000000001 0  0.008800000000000001 0.008400000000000001 0  0.0092 0.008400000000000001 0  0.009599999999999999 0.008400000000000001 0  0.01 0.008400000000000001 0  0.0104 0.008400000000000001 0  0.0108 0.008400000000000001 0  0.0112 0.008400000000000001 0  0.0116 0.008400000000000001 0  0.012 0.008400000000000001 0  0.0124 0.008400000000000001 0  0.0128 0.008400000000000001 0  0.0132 0.008400000000000001 0  0.0136 0.008400000000000001 0  0.014 0.008400000000000001 0  0.0144 0.008400000000000001 0  0.0148 0.008400000000000001 0  0.0152 0.008400000000000001 0  0.0156 0.008400000000000001 0  0.016 0.008400000000000001 0  0.0164 0.008400000000000001 0  0.0168 0.008400000000000001 0  0.0172 0.008400000000000001 0  0.0176 0.008400000000000001 0  0.018 0.008400000000000001 0  0.0184 0.008400000000000001 0  0.0188 0.008400000000000001 0  0.0192 0.008400000000000001 0  0.0196 0.008400000000000001 0  0.02 0.008400000000000001 0  0 0.009600000000000001 0  0.0004 0.009600000000000001 0  0.0008 0.009600000000000001 0  0.0012 0.009600000000000001 0  0.0016 0.009600000000000001 0  0.002 0.009600000000000001 0  0.0024 0.009600000000000001 0  0.0028 0.009600000000000001 0  0.0032 0.009600000000000001 0  0.0036 0.009600000000000001 0  0.004 0.009600000000000001 0  0.0044 0.009600000000000001 0  0.0048 0.009600000000000001 0  0.0052 0.009600000000000001 0  0.005600000000000001 0.009600000000000001 0  0.006 0.009600000000000001 0  0.0064 0.009600000000000001 0  0.0068 0.009600000000000001 0  0.0072 0.009600000000000001 0  0.0076 0.009600000000000001 0  0.008 0.009600000000000001 0  0.008399999999999999 0.009600000000000001 0  0.008800000000000001 0.009600000000000001 0  0.0092 0.009600000000000001 0  0.009599999999999999 0.009600000000000001 0  0.01 0.009600000000000001 0  0.0104 0.009600000000000001 0  0.0108 0.009600000000000001 0  0.0112 0.009600000000000001 0  0.0116 0.009600000000000001 0  0.012 0.009600000000000001 0  0.0124 0.009600000000000001 0  0.0128 0.009600000000000001 0  0.0132 0.009600000000000001 0  0.0136 0.009600000000000001 0  0.014 0.009600000000000001 0  0.0144 0.009600000000000001 0  0.0148 0.009600000000000001 0  0.0152 0.009600000000000001 0  0.0156 0.009600000000000001 0  0.016 0.009600000000000001 0  0.0164 0.009600000000000001 0  0.0168 0.009600000000000001 0  0.0172 0.009600000000000001 0  0.017
[...]
<PointData  Scalars="T [K]"> 
<DataArray  type="Float64"  Name="T [K]"  format="ascii">3.0000000000000000e+02  2.9999999999999994e+02  3.0000000000000000e+02  3.0000000000000000e+02  3.0000000000000000e+02  3.0000000000000000e+02  3.0000000000000000e+02  3.0000000000000000e+02  3.0000000000000000e+02  3.0000000000000000e+02  3.0000000000000000e+02  3.0000000000000000e+02  3.0000000000000000e+02  3.0000000000000000e+02  3.0000000000000000e+02  3.0000000000000000e+02  3.0000000000000000e+02  3.0000000000000000e+02  3.0000000000000000e+02  3.0000000000000000e+02  3.0000000000000000e+02  3.0000000000000000e+02  3.0000000000000000e+02  3.0000000000000000e+02  3.0000000000000000e+02  3.0000000000000000e+02  3.0000000000000000e+02  3.0000000000000000e+02  3.0000000000000000e+02  3.0000000000000000e+02  3.0000000000000000e+02  3.0000000000000000e+02  3.0000000000000000e+02  3.0000000000000000e+02  3.0000000000000000e+02  3.0000000000000000e+02  3.0000000000000000e+02  3.0000000000000000e+02  3.0000000000000000e+02  3.0000000000000000e+02  3.0000000000000000e+02  3.0000000000000000e+02  3.0000000000000000e+02  3.0000000000000000e+02  3.0000000000000000e+02  3.0000000000000000e+02  3.0000000000000000e+02  3.0000000000000000e+02  3.0000000000000000e+02  2.9999999999999994e+02  3.0000000000000000e+02  3.1314843657121145e+02  3.1314212448986206e+02  3.1314843657121162e+02  3.1314212448986211e+02  3.1314843657121168e+02  3.1314212448986217e+02  3.1314843657121156e+02  3.1314212448986211e+02  3.1314843657121156e+02  3.1314212448986206e+02  3.1314843657121173e+02  3.1314212448986223e+02  3.1314843657121185e+02  3.1314212448986234e+02  3.1314843657121185e+02  3.1314212448986245e+02  3.1314843657121202e+02  3.1314212448986240e+02  3.1314843657121185e+02  3.1314212448986228e+02  3.1314843657121168e+02  3.1314212448986217e+02  3.1314843657121168e+02  3.1314212448986223e+02  3.1314843657121190e+02  3.1314212448986251e+02  3.1314843657121207e+02  3.1314212448986268e+02  3.1314843657121213e+02  3.1314212448986257e+02  3.1314843657121202e+02  3.1314212448986251e+02  3.1314843657121202e+02  3.1314212448986245e+02  3.1314843657121207e+02  3.1314212448986245e+02  3.1314843657121202e+02  3.1314212448986251e+02  3.1314843657121213e+02  3.1314212448986274e+02  3.1314843657121230e+02  3.1314212448986279e+02  3.1314843657121236e+02  3.1314212448986285e+02  3.1314843657121241e+02  3.1314212448986285e+02  3.1314843657121230e+02  3.1314212448986297e+02  3.1314843657121259e+02  3.1314212448986325e+02  3.1314843657121298e+02  3.2665673455996131e+02  3.2666315293849919e+02  3.2665673455996171e+02  3.2666315293849942e+02  3.2665673455996165e+02  3.2666315293849937e+02  3.2665673455996165e+02  3.2666315293849948e+02  3.2665673455996182e+02  3.2666315293849971e+02  3.2665673455996205e+02  3.2666315293849982e+02  3.2665673455996222e+02  3.2666315293849999e+02  3.2665673455996216e+02  3.2666315293849993e+02  3.2665673455996222e+02  3.2666315293849993e+02  3.2665673455996222e+02  3.2666315293849999e+02  3.2665673455996216e+02  3.2666315293849988e+02  3.2665673455996210e+02  3.2666315293849976e+02  3.2665673455996210e+02  3.2666315293849993e+02  3.2665673455996222e+02  3.2666315293850022e+02  3.2665673455996239e+02  3.2666315293850010e+02  3.2665673455996239e+02  3.2666315293850016e+02  3.2665673455996239e+02  3.2666315293850022e+02  3.2665673455996256e+02  3.2666315293850033e+02  3.2665673455996256e+02  3.2666315293850050e+02  3.2665673455996273e+02  3.2666315293850056e+02  3.2665673455996296e+02  3.2666315293850073e+02  3.2665673455996313e+02  3.2666315293850101e+02  3.2665673455996335e+02  3.2666315293850124e+02  3.2665673455996364e+02  3.2666315293850164e+02  3.2665673455996398e+02  3.2666315293850192e+02  3.2665673455996443e+02  3.4056327904074243e+02  3.4055658317623255e+02  3.4056327904074271e+02  3.4055658317623289e+02  3.4056327904074305e+02  3.4055658317623329e+02  3.4056327904074328e+02  3.4055658317623340e+02  3.4056327904074345e+02  3.4055658317623363e+02  3.4056327904074379e+02  3.4055658317623391e+02  3.4056327904074396e+02  3.4055658317623397e+02  3.4056327904074402e+02  3.4055658317623414e+02  3.4056327904074425e+02  3.4055658317623414e+02  3.4056327904074413e+02  3.4055658317623403e+02  3.4056327904074391e+02  3.4055658317623374e+02  3.4056327904074379e+02  3.4055658317623397e+02  3.4056327904074413e+02  3.4055658317623437e+02  3.4056327904074442e+02  3.4055658317623454e+02  3.4056327904074459e+02  3.4055658317623443e+02  3.4056327904074436e+02  3.4055658317623437e+02  3.4056327904074453e+02  3.4055658317623460e+02  3.4056327904074487e+02  3.4055658317623482e+02  3.4056327904074493e+02  3.4055658317623499e+02  3.4056327904074516e+02  3.4055658317623528e+02  3.4056327904074533e+02  3.4055658317623556e+02  3.4056327904074561e+02  3.4055658317623590e+02  3.4056327904074618e+02  3.4055658317623619e+02  3.4056327904074629e+02  3.4055658317623647e+02  3.4056327904074652e+02  3.4055658317623670e+02  3.4056327904074692e+02  3.5485815040384364e+02  3.5486512734404414e+02  3.5485815040384409e+02  3.5486512734404454e+02  3.5485815040384432e+02  3.5486512734404482e+02  3.5485815040384483e+02  3.5486512734404533e+02  3.5485815040384523e+02  3.5486512734404562e+02  3.5485815040384546e+02  3.5486512734404573e+02  3.5485815040384574e+02  3.5486512734404607e+02  3.5485815040384585e+02  3.5486512734404619e+02  3.5485815040384597e+02  3.5486512734404619e+02  3.5485815040384603e+02  3.5486512734404641e+02  3.5485815040384614e+02  3.5486512734404636e+02  3.5485815040384614e+02  3.5486512734404653e+02  3.5485815040384654e+02  3.5486512734404693e+02  3.5485815040384682e+02  3.5486512734404715e+02  3.5485815040384682e+02  3.5486512734404704e+02  3.5485815040384671e+02  3.5486512734404693e+02  3.5485815040384676e+02  3.5486512734404721e+02  3.5485815040384699e+02  3.5486512734404744e+02  3.5485815040384728e+02  3.5486512734404766e+02  3.5485815040384762e+02  3.5486512734404806e+02  3.5485815040384796e+02  3.5486512734404840e+02  3.5485815040384847e+02  3.5486512734404903e+02  3.5485815040384887e+02  3.5486512734404931e+02  3.5485815040384921e+02  3.5486512734404971e+02  3.5485815040384944e+02  3.5486512734405005e+02  3.5485815040384989e+02  3.6958557034728278e+02  3.6957830398907612e+02  3.6958557034728312e+02  3.6957830398907652e+02  3.6958557034728369e+02  3.6957830398907714e+02  3.6958557034728449e+02  3.6957830398907794e+02  3.6958557034728483e+02  3.6957830398907811e+02  3.6958557034728517e+02  3.6957830398907856e+02  3.6958557034728534e+02  3.6957830398907856e+02  3.6958557034728540e+02  3.6957830398907862e+02  3.6958557034728568e+02  3.6957830398907896e+02  3.6958557034728591e+02  3.6957830398907919e+02  3.6958557034728602e+02  3.6957830398907907e+02  3.6958557034728591e+02  3.6957830398907913e+02  3.6958557034728625e+02  3.6957830398907959e+02  3.6958557034728653e+02  3.6957830398907976e+02  3.6958557034728653e+02  3.6957830398907976e+02  3.6958557034728648e+02  3.6957830398907976e+02  3.6958557034728670e+02  3.6957830398908004e+02  3.6958557034728705e+02  3.6957830398908044e+02  3.6958557034728727e+02  3.6957830398908044e+02  3.6958557034728750e+02  3.6957830398908084e+02  3.6958557034728796e+02  3.6957830398908146e+02  3.6958557034728847e+02  3.6957830398908186e+02  3.6958557034728909e+02  3.6957830398908249e+02  3.6958557034728955e+02  3.6957830398908277e+02  3.6958557034728972e+02  3.6957830398908305e+02  3.6958557034729000e+02  3.8473440768590154e+02  3.8474197207076969e+02  3.8473440768590223e+02  3.8474197207077003e+02  3.8473440768590234e+02  3.8474197207077049e+02  3.8473440768590291e+02  3.8474197207077100e+02  3.8473440768590353e+02  3.8474197207077145e+02  3.8473440768590382e+02  3.8474197207077168e+02  3.8473440768590405e+02  3.8474197207077191e+02  3.8473440768590405e+02  3.8474197207077196e+02  3.8473440768590433e+02  3.8474197207077225e+02  3.8473440768590456e+02  3.8474197207077253e+02  3.8473440768590478e+02  3.8474197207077265e+02  3.8473440768590473e+02  3.8474197207077259e+02  3.8473440768590496e+02  3.8474197207077270e+02  3.8473440768590501e+02  3.8474197207077293e+02  3.8473440768590530e+02  3.8474197207077310e+02  3.8473440768590530e+02  3.8474197207077316e+02  3.8473440768590535e+02  3.8474197207077327e+02  3.8473440768590547e+02  3.8474197207077333e+02  3.8473440768590569e+02  3.8474197207077378e+02  3.8473440768590604e+02  3.8474197207077407e+02  3.8473440768590649e+02  3.8474197207077447e+02  3.8473440768590694e+02  3.8474197207077498e+02  3.8473440768590723e+02  3.8474197207077503e+02  3.8473440768590751e+02  3.8474197207077543e+02  3.8473440768590774e+02  3.8474197207077589e+02  3.8473440768590820e+02  4.0035221003963426e+02  4.0034434023679358e+02  4.0035221003963460e+02  4.0034434023679370e+02  4.0035221003963477e+02  4.0034434023679398e+02  4.0035221003963517e+02  4.0034434023679449e+02  4.0035221003963568e+02  4.0034434023679455e+02  4.0035221003963574e+02  4.0034434023679495e+02  4.0035221003963602e+02  4.0034434023679506e+02  4.0035221003963602e+02  4.0034434023679518e+02  4.0035221003963630e+02  4.0034434023679557e+02  4.0035221003963670e+02  4.0034434023679574e+02  4.0035221003963682e+02  4.0034434023679569e+02  4.0035221003963659e+02  4.0034434023679557e+02  4.0035221003963670e+02  4.0034434023679574e+02  4.0035221003963687e+02  4.0034434023679592e+02  4.0035221003963699e+02  4.0034434023679609e+02  4.0035221003963721e+02  4.0034434023679631e+02  4.0035221003963733e+02  4.0034434023679648e+02  4.0035221003963750e+02  4.0034434023679671e+02  4.0035221003963790e+02  4.0034434023679705e+02  4.0035221003963824e+02  4.0034434023679734e+02  4.0035221003963852e+02  4.0034434023679756e+02  4.0035221003963858e+02  4.0034434023679779e+02  4.0035221003963898e+02  4.0034434023679819e+02  4.0035221003963920e+02  4.0034434023679842e+02  4.0035221003963949e+02  4.0034434023679876e+02  4.0035221003964000e+02  4.1642648508137268e+02  4.1643472774729253e+02  4.1642648508137330e+02  4.1643472774729304e+02  4.1642648508137347e+02  4.1643472774729310e+02  4.1642648508137347e+02  4.1643472774729304e+02  4.1642648508137358e+02  4.1643472774729338e+02  4.1642648508137376e+02  4.1643472774729327e+02  4.1642648508137376e+02  4.1643472774729349e+02  4.1642648508137387e+02  4.1643472774729349e+02  4.1642648508137404e+02  4.1643472774729383e+02  4.1642648508137449e+02  4.1643472774729429e+02  4.1642648508137489e+02  4.1643472774729435e+02  4.1642648508137455e+02  4.1643472774729406e+02  4.1642648508137444e+02  4.1643472774729423e+02  4.1642648508137478e+02  4.1643472774729435e+02  4.1642648508137489e+02  4.1643472774729446e+02  4.1642648508137495e+02  4.1643472774729457e+02  4.1642648508137501e+02  4.1643472774729463e+02  4.1642648508137523e+02  4.1643472774729491e+02  4.1642648508137546e+02  4.1643472774729514e+02  4.1642648508137574e+02  4.1643472774729554e+02  4.1642648508137609e+02  4.1643472774729571e+02  4.1642648508137614e+02  4.1643472774729571e+02  4.1642648508137620e+02  4.1643472774729594e+02  4.1642648508137671e+02  4.1643472774729656e+02  4.1642648508137728e+02  4.1643472774729702e+02  4.1642648508137762e+02  4.3300736263454525e+02  4.3300094602915777e+02  4.3300736263454559e+02  4.3300094602915800e+02  4.3300736263454587e+02  4.3300094602915823e+02  4.3300736263454581e+02  4.3300094602915817e+02  4.3300736263454564e+02  4.3300094602915800e+02  4.3300736263454593e+02  4.3300094602915840e+02  4.3300736263454593e+02  4.3300094602915811e+02  4.3300736263454587e+02  4.3300094602915840e+02  4.3300736263454638e+02  4.3300094602915891e+02  4.3300736263454650e+02  4.3300094602915880e+02  4.3300736263454633e+02  4.3300094602915880e+02  4.3300736263454627e+02  4.3300094602915846e+02  4.3300736263454610e+02  4.3300094602915851e+02  4.3300736263454615e+02  4.3300094602915846e+02  4.3300736263454633e+02  4.3300094602915874e+02  4.3300736263454644e+02  4.3300094602915885e+02  4.3300736263454672e+02  4.3300094602915914e+02  4.3300736263454678e+02  4.3300094602915908e+02  4.3300736263454678e+02  4.3300094602915919e+02  4.3300736263454689e+02  4.3300094602915937e+02  4.3300736263454706e+02  4.3300094602915942e+02  4.3300736263454706e+02  4.3300094602915937e+02  4.3300736263454718e+02  4.3300094602915965e+02  4.3300736263454746e+02  4.3300094602915982e+02  4.3300736263454775e+02  4.3300094602916027e+02  4.3300736263454831e+02  4.5000000000000000e+02  4.4999999999999994e+02  4.5000000000000000e+02  4.5000000000000000e+02  4.5000000000000000e+02  4.5000000000000000e+02  4.5000000000000000e+02  4.5000000000000000e+02  4.5000000000000000e+02  4.5000000000000000e+02  4.5000000000000000e+02  4.5000000000000000e+02  4.5000000000000000e+02  4.5000000000000000e+02  4.5000000000000000e+02  4.5000000000000000e+02  4.5000000000000000e+02  4.5000000000000000e+02  4.5000000000000000e+02  4.5000000000000000e+02  4.5000000000000000e+02  4.5000000000000000e+02  4.5000000000000000e+02  4.5000000000000000e+02  4.5000000000000000e+02  4.5000000000000000e+02  4.5000000000000000e+02  4.5000000000000000e+02  4.5000000000000000e+02  4.5000000000000000e+02  4.5000000000000000e+02  4.5000000000000000e+02  4.5000000000000000e+02  4.5000000000000000e+02  4.5000000000000000e+02  4.5000000000000000e+02  4.5000000000000000e+02  4.5000000000000000e+02  4.5000000000000000e+02  4.5000000000000000e+02  4.5000000000000000e+02  4.5000000000000000e+02  4.5000000000000000e+02  4.5000000000000000e+02  4.5000000000000000e+02  4.5000000000000000e+02  4.5000000000000000e+02  4.5000000000000000e+02  4.5000000000000000e+02  4.4999999999999994e+02  4.5000000000000000e+02  </DataArray> 
</PointData> 
</Piece>
</UnstructuredGrid>
</VTKFile>