<?xml version="1.0"?>
<VTKFile type="UnstructuredGrid"  version="0.1"  >
<UnstructuredGrid>
<Piece  NumberOfPoints="13994" NumberOfCells="27604">
<Points>
<DataArray  type="Float64"  NumberOfComponents="3"  format="ascii">0 0 0  0 0.002 0  0 0.012 0  0.02 0.012 0  0.02 0.002 0  0.02 0 0  0 0.00018991218723181 0  0 0.0003733069980565314 0  0 0.0005291058521180011 0  0 0.0006498368539013445 0  0 0.0007536755098046806 0  0 0.0008517785356707968 0  0 0.0009480373746127394 0  0 0.001043725399826676 0  0 0.001139352859843888 0  0 0.001234980319861256 0  0 0.001330607779878751 0  0 0.001426235239895836 0  0 0.001521862699913337 0  0 0.001617490159930668 0  0 0.001713117619947918 0  0 0.001808745079965419 0  0 0.00190437253998255 0  0 0.002099315255484767 0  0 0.00219863051096945 0  0 0.002297945766454132 0  0 0.002397261021938822 0  0 0.002496576277423643 0  0 0.002595891532908487 0  0 0.002695206788393201 0  0 0.002794522043877884 0  0 0.002893837299362567 0  0 0.002993152554847297 0  0 0.003092681927103184 0  0 0.003193251726535867 0  0 0.003297217623563905 0  0 0.003412055643439157 0  0 0.003556206383341719 0  0 0.00373832862847297 0  0 0.003934412277764292 0  0 0.004132269451364158 0  0 0.004330165071839649 0  0 0.004528060692314851 0  0 0.004725956312789485 0  0 0.004923851933264119 0  0 0.005121747553738754 0  0 0.005319643174213387 0  0 0.005517538794688026 0  0 0.005715434415163353 0  0 0.00591333003563883 0  0 0.006111225656113617 0  0 0.006309121276588279 0  0 0.006507016897063628 0  0 0.006704912517539083 0  0 0.006902808138013848 0  0 0.007100703758489355 0  0 0.007298599378965707 0  0 0.00749649499944143 0  0 0.007694390619917074 0  0 0.007892286240393405 0  0 0.008090181860869756 0  0 0.008288077481346107 0  0 0.008485973101822112 0  0 0.008683868722297605 0  0 0.008881764342773803 0  0 0.009079659963250154 0  0 0.009277555583726452 0  0 0.009475451204201943 0  0 0.009673346824677437 0  0 0.009871242445153522 0  0 0.01006909055712404 0  0 0.01026501958268966 0  0 0.01044620416271123 0  0 0.01058894488656577 0  0 0.0107031139712953 0  0 0.0108068497950327 0  0 0.01090734303176106 0  0 0.01100684744514782 0  0 0.01110616270063268 0  0 0.01120547795611743 0  0 0.0113047932116027 0  0 0.01140410846708803 0  0 0.01150342372257336 0  0 0.01160273897805869 0  0 0.01170205423354402 0  0 0.01180136948902934 0  0 0.01190068474451467 0  9.978975395281022e-05 0.012 0  0.0001995795079056199 0.012 0  0.0002993692618584289 0.012 0  0.0003991590158112439 0.012 0  0.0004989487697640555 0.012 0  0.0005987385237168579 0.012 0  0.0006985282776696451 0.012 0  0.0007983180316224271 0.012 0  0.000898107785575209 0.012 0  0.0009978975395279867 0.012 0  0.001097903761155907 0.012 0  0.00119897444176409 0.012 0  0.001303552401813303 0.012 0  0.001419441874278495 0.012 0  0.001565665351390316 0.012 0  0.001749734577628449 0.012 0  0.001946961243490195 0.012 0  0.002145776300130266 0.012 0  0.002344617406455583 0.012 0  0.002543458512780745 0.012 0  0.002742299619105691 0.012 0  0.002941140725430647 0.012 0  0.003139981831755724 0.012 0  0.003338822938080718 0.012 0  0.003537664044405765 0.012 0  0.003736505150730789 0.012 0  0.003935346257055665 0.012 0  0.004134187363380482 0.012 0  0.004333028469705492 0.012 0  0.004531869576030592 0.012 0  0.004730710682355693 0.012 0  0.004929551788680701 0.012 0  0.005128392895005586 0.012 0  0.005327234001330656 0.012 0  0.005526075107655759 0.012 0  0.00572491621398086 0.012 0  0.005923757320305807 0.012 0  0.006122598426630523 0.012 0  0.006321439532955485 0.012 0  0.006520280639280587 0.012 0  0.006719121745605689 0.012 0  0.006917962851930744 0.012 0  0.007116803958255627 0.012 0  0.007315645064580652 0.012 0  0.007514486170905753 0.012 0  0.007713327277230856 0.012 0  0.007912168383555849 0.012 0  0.008111009489880579 0.012 0  0.008309850596205249 0.012 0  0.00850869170252992 0.012 0  0.008707532808854836 0.012 0  0.008906373915180277 0.012 0  0.009105215021505809 0.012 0  0.009304056127831339 0.012 0  0.009502897234156595 0.012 0  0.009701738340481325 0.012 0  0.00990057944680612 0.012 0  0.01009942055313165 0.012 0  0.01029826165945792 0.012 0  0.01049710276578432 0.012 0  0.01069594387211056 0.012 0  0.01089478497843628 0.012 0  0.01109362608476181 0.012 0  0.01129246719108743 0.012 0  0.01149130829741358 0.012 0  0.01169014940373998 0.012 0  0.01188899051006637 0.012 0  0.01208783161639276 0.012 0  0.01228667272271916 0.012 0  0.01248551382904555 0.012 0  0.01268435493537189 0.012 0  0.0128831960416977 0.012 0  0.01308203714802323 0.012 0  0.01328087825434876 0.012 0  0.01347971936067482 0.012 0  0.01367856046700121 0.012 0  0.01387740157332761 0.012 0  0.014076242679654 0.012 0  0.0142750837859804 0.012 0  0.01447392489230679 0.012 0  0.01467276599863288 0.012 0  0.01487160710495845 0.012 0  0.01507044821128398 0.012 0  0.01526928931760951 0.012 0  0.01546813042393538 0.012 0  0.01566697153026177 0.012 0  0.01586581263658817 0.012 0  0.01606465374291456 0.012 0  0.01626349484924096 0.012 0  0.01646233595556735 0.012 0  0.01666117706189375 0.012 0  0.01686001816822014 0.012 0  0.01705885927454654 0.012 0  0.01725770038087293 0.012 0  0.01745654148719933 0.012 0  0.01765538259352572 0.012 0  0.01785422369985126 0.012 0  0.01805303875649182 0.012 0  0.01825026542235476 0.012 0  0.01843433464859586 0.012 0  0.0185805581257116 0.012 0  0.01869644759817871 0.012 0  0.01880102555822882 0.012 0  0.01890209623883762 0.012 0  0.01900210246046605 0.012 0  0.01910189221441937 0.012 0  0.01920168196837277 0.012 0  0.01930147172232618 0.012 0  0.01940126147627958 0.012 0  0.01950105123023298 0.012 0  0.01960084098418639 0.012 0  0.01970063073813979 0.012 0  0.0198004204920932 0.012 0  0.0199002102460466 0.012 0  0.02 0.01190068474451468 0  0.02 0.01180136948902936 0  0.02 0.01170205423354404 0  0.02 0.01160273897805911 0  0.02 0.01150342372257466 0  0.02 0.0114041084670902 0  0.02 0.01130479321160574 0  0.02 0.01120547795612128 0  0.02 0.01110616270063682 0  0.02 0.01100684744515223 0  0.02 0.01090734303176592 0  0.02 0.01080684979503809 0  0.02 0.0107031139713015 0  0.02 0.01058894488657366 0  0.02 0.01044620416272257 0  0.02 0.01026501958270403 0  0.02 0.0100690905571399 0  0.02 0.009871242445170739 0  0.02 0.009673346824695263 0  0.02 0.009475451204219894 0  0.02 0.009277555583745276 0  0.02 0.009079659963270658 0  0.02 0.008881764342796038 0  0.02 0.008683868722321421 0  0.02 0.008485973101846803 0  0.02 0.008288077481371333 0  0.02 0.008090181860895874 0  0.02 0.007892286240421254 0  0.02 0.007694390619946956 0  0.02 0.007496494999471631 0  0.02 0.007298599378996185 0  0.02 0.007100703758521427 0  0.02 0.006902808138045967 0  0.02 0.006704912517569632 0  0.02 0.00650701689709391 0  0.02 0.00630912127661829 0  0.02 0.006111225656141982 0  0.02 0.005913330035665646 0  0.02 0.005715434415189312 0  0.02 0.005517538794713476 0  0.02 0.005319643174237913 0  0.02 0.005121747553761661 0  0.02 0.004923851933285327 0  0.02 0.00472595631280901 0  0.02 0.004528060692333383 0  0.02 0.004330165071857877 0  0.02 0.004132269451381683 0  0.02 0.003934412277780621 0  0.02 0.003738328628487856 0  0.02 0.003556206383353586 0  0.02 0.003412055643447466 0  0.02 0.003297217623570428 0  0.02 0.003193251726541566 0  0.02 0.003092681927108373 0  0.02 0.002993152554852059 0  0.02 0.002893837299367244 0  0.02 0.002794522043882504 0  0.02 0.002695206788397242 0  0.02 0.002595891532911922 0  0.02 0.002496576277426601 0  0.02 0.002397261021941282 0  0.02 0.002297945766455962 0  0.02 0.002198630510970641 0  0.02 0.002099315255485321 0  0.02 0.001904372539982662 0  0.02 0.00180874507996562 0  0.02 0.001713117619948905 0  0.02 0.001617490159932045 0  0.02 0.001521862699915003 0  0.02 0.001426235239897792 0  0.02 0.001330607779880864 0  0.02 0.00123498031986434 0  0.02 0.001139352859847767 0  0.02 0.001043725399830725 0  0.02 0.0009480373746167511 0  0.02 0.0008517785356742583 0  0.02 0.0007536755098076359 0  0.02 0.0006498368539039022 0  0.02 0.0005291058521203294 0  0.02 0.0003733069980584446 0  0.02 0.0001899121872328039 0  0.01980198019801899 0 0  0.01960396039603798 0 0  0.01940594059405751 0 0  0.01920792079207809 0 0  0.01900990099009879 0 0  0.0188118811881195 0 0  0.01861386138614021 0 0  0.01841584158416092 0 0  0.01821782178218163 0 0  0.01801980198020233 0 0  0.01782178217822304 0 0  0.01762376237624375 0 0  0.01742574257426446 0 0  0.01722772277228516 0 0  0.01702970297030587 0 0  0.01683168316832658 0 0  0.01663366336634692 0 0  0.01643564356436677 0 0  0.01623762376238662 0 0  0.01603960396040647 0 0  0.01584158415842632 0 0  0.01564356435644616 0 0  0.01544554455446567 0 0  0.01524752475248552 0 0  0.0150495049505056 0 0  0.0148514851485262 0 0  0.01465346534654691 0 0  0.01445544554456762 0 0  0.01425742574258833 0 0  0.01405940594060903 0 0  0.01386138613862974 0 0  0.01366336633665045 0 0  0.01346534653467116 0 0  0.01326732673269186 0 0  0.01306930693071257 0 0  0.01287128712873307 0 0  0.01267326732675304 0 0  0.01247524752477289 0 0  0.01227722772279274 0 0  0.01207920792081283 0 0  0.01188118811883343 0 0  0.01168316831685414 0 0  0.01148514851487485 0 0  0.0112871287128953 0 0  0.01108910891091523 0 0  0.01089108910893508 0 0  0.01069306930695493 0 0  0.01049504950497506 0 0  0.01029702970299571 0 0  0.01009900990101629 0 0  0.009900990099036141 0 0  0.009702970297055254 0 0  0.009504950495074242 0 0  0.009306930693093381 0 0  0.009108910891113039 0 0  0.008910891089132891 0 0  0.00871287128715266 0 0  0.008514851485171908 0 0  0.008316831683190898 0 0  0.008118811881209886 0 0  0.007920792079228876 0 0  0.007722772277247866 0 0  0.007524752475266856 0 0  0.007326732673285883 0 0  0.007128712871305429 0 0  0.00693069306932528 0 0  0.006732673267345128 0 0  0.006534653465364517 0 0  0.006336633663383506 0 0  0.006138613861402497 0 0  0.005940594059421487 0 0  0.005742574257440475 0 0  0.005544554455459467 0 0  0.005346534653478721 0 0  0.005148514851498497 0 0  0.004950495049518343 0 0  0.00475247524
[...]
<PointData  Vectors="U [m]"> 
<DataArray  type="Float64"  Name="U [m]"  NumberOfComponents="3" format="ascii">5.7377562799544688e-06 -3.1365526803941359e-06 0.0000000000000000e+00  4.8666434920569832e-06 -3.0149128625480240e-06 0.0000000000000000e+00  0.0000000000000000e+00 0.0000000000000000e+00 0.0000000000000000e+00  1.1379185858746564e-05 0.0000000000000000e+00 0.0000000000000000e+00  6.5125206986581558e-06 -3.0150007073296251e-06 0.0000000000000000e+00  5.6413526532430646e-06 -3.1366550680964682e-06 0.0000000000000000e+00  5.6526109243416653e-06 -3.1357679835970448e-06 0.0000000000000000e+00  5.5700237043401774e-06 -3.1330509619657705e-06 0.0000000000000000e+00  5.4996991843702767e-06 -3.1291852421432592e-06 0.0000000000000000e+00  5.4450298181221023e-06 -3.1251271558559707e-06 0.0000000000000000e+00  5.3980546089241635e-06 -3.1208413911972212e-06 0.0000000000000000e+00  5.3538036690766370e-06 -3.1161205143480537e-06 0.0000000000000000e+00  5.3104811784770662e-06 -3.1108287556865691e-06 0.0000000000000000e+00  5.2675509375140291e-06 -3.1050121080994707e-06 0.0000000000000000e+00  5.2249654867835769e-06 -3.0986507442274348e-06 0.0000000000000000e+00  5.1824750215889224e-06 -3.0916098667358330e-06 0.0000000000000000e+00  5.1402800413737080e-06 -3.0839477219433245e-06 0.0000000000000000e+00  5.0985070907107026e-06 -3.0756807261709518e-06 0.0000000000000000e+00  5.0571457997782785e-06 -3.0667935072131811e-06 0.0000000000000000e+00  5.0163474677803165e-06 -3.0572146077365683e-06 0.0000000000000000e+00  4.9762664810936149e-06 -3.0470009966171220e-06 0.0000000000000000e+00  4.9377565313742526e-06 -3.0362937374798612e-06 0.0000000000000000e+00  4.9003509920215898e-06 -3.0251507194347531e-06 0.0000000000000000e+00  4.8325855573995066e-06 -3.0090841100967374e-06 0.0000000000000000e+00  4.7961220826894662e-06 -3.0057115882557857e-06 0.0000000000000000e+00  4.7573872484665456e-06 -3.0023002016446338e-06 0.0000000000000000e+00  4.7171070729159649e-06 -2.9985527666276001e-06 0.0000000000000000e+00  4.6759422868476291e-06 -2.9943072471575299e-06 0.0000000000000000e+00  4.6339564717574027e-06 -2.9896815244053839e-06 0.0000000000000000e+00  4.5913995679550868e-06 -2.9843429555215568e-06 0.0000000000000000e+00  4.5482000133951687e-06 -2.9785645449955677e-06 0.0000000000000000e+00  4.5046007151351528e-06 -2.9721538911804619e-06 0.0000000000000000e+00  4.4605203259553734e-06 -2.9652376476585663e-06 0.0000000000000000e+00  4.4159168224459575e-06 -2.9577986611384602e-06 0.0000000000000000e+00  4.3704246319383556e-06 -2.9496898764898362e-06 0.0000000000000000e+00  4.3231293000674070e-06 -2.9406108634122310e-06 0.0000000000000000e+00  4.2704917958838679e-06 -2.9298452289797249e-06 0.0000000000000000e+00  4.2038968080979280e-06 -2.9153299495427960e-06 0.0000000000000000e+00  4.1190173605539868e-06 -2.8952266954794336e-06 0.0000000000000000e+00  4.0269269174259861e-06 -2.8713092553255183e-06 0.0000000000000000e+00  3.9333652779130452e-06 -2.8450511829508786e-06 0.0000000000000000e+00  3.8386941039604503e-06 -2.8166155953916784e-06 0.0000000000000000e+00  3.7438115382699589e-06 -2.7856926015858821e-06 0.0000000000000000e+00  3.6482891791822863e-06 -2.7526163788343927e-06 0.0000000000000000e+00  3.5521465561843942e-06 -2.7174823466626596e-06 0.0000000000000000e+00  3.4554308125900016e-06 -2.6799786705567955e-06 0.0000000000000000e+00  3.3584787917367255e-06 -2.6401409118254414e-06 0.0000000000000000e+00  3.2608760793913327e-06 -2.5980564518371670e-06 0.0000000000000000e+00  3.1632754791957772e-06 -2.5536276695708040e-06 0.0000000000000000e+00  3.0653650169099989e-06 -2.5069474411161813e-06 0.0000000000000000e+00  2.9670176106325992e-06 -2.4582744982998635e-06 0.0000000000000000e+00  2.8683313580746983e-06 -2.4073123871558193e-06 0.0000000000000000e+00  2.7695125669871669e-06 -2.3538096279365708e-06 0.0000000000000000e+00  2.6705208392298822e-06 -2.2984477252678959e-06 0.0000000000000000e+00  2.5712046446869877e-06 -2.2406894478984228e-06 0.0000000000000000e+00  2.4719319044782938e-06 -2.1806651989030336e-06 0.0000000000000000e+00  2.3722601982812687e-06 -2.1184849084994653e-06 0.0000000000000000e+00  2.2726241167616367e-06 -2.0540433047302683e-06 0.0000000000000000e+00  2.1727330446823845e-06 -1.9873857246868833e-06 0.0000000000000000e+00  2.0730449152031938e-06 -1.9184047015237227e-06 0.0000000000000000e+00  1.9729974444472906e-06 -1.8475135891045585e-06 0.0000000000000000e+00  1.8729133973229464e-06 -1.7742187846511731e-06 0.0000000000000000e+00  1.7728943269633227e-06 -1.6987493747893459e-06 0.0000000000000000e+00  1.6727326285068305e-06 -1.6210751891217645e-06 0.0000000000000000e+00  1.5725864734211094e-06 -1.5411013714899869e-06 0.0000000000000000e+00  1.4724010295080356e-06 -1.4589781133711720e-06 0.0000000000000000e+00  1.3724433454889728e-06 -1.3748908308795702e-06 0.0000000000000000e+00  1.2721860758253610e-06 -1.2885295824648010e-06 0.0000000000000000e+00  1.1722978724400689e-06 -1.1999082726281502e-06 0.0000000000000000e+00  1.0721151963144207e-06 -1.1090319381117553e-06 0.0000000000000000e+00  9.7238457976093699e-07 -1.0163613072007028e-06 0.0000000000000000e+00  8.7341815900665407e-07 -9.2238818245617771e-07 0.0000000000000000e+00  7.8198008981092846e-07 -8.3352694482404030e-07 0.0000000000000000e+00  7.1002228994232399e-07 -7.6244070855000006e-07 0.0000000000000000e+00  6.5235012854899406e-07 -7.0471104151702947e-07 0.0000000000000000e+00  6.0004009098248572e-07 -6.5163303734110686e-07 0.0000000000000000e+00  5.4936209347060919e-07 -5.9961743639344869e-07 0.0000000000000000e+00  4.9920004976010851e-07 -5.4763145777251822e-07 0.0000000000000000e+00  4.4923835009396816e-07 -4.9521464229093136e-07 0.0000000000000000e+00  3.9924279021298112e-07 -4.4229440569099017e-07 0.0000000000000000e+00  3.4925085015024511e-07 -3.8883668833380783e-07 0.0000000000000000e+00  2.9927260136215049e-07 -3.3483425144270760e-07 0.0000000000000000e+00  2.4932501394386796e-07 -2.8031006535320080e-07 0.0000000000000000e+00  1.9941508587237761e-07 -2.2530458818331816e-07 0.0000000000000000e+00  1.4946126643866696e-07 -1.6976129444403933e-07 0.0000000000000000e+00  9.9607374358881103e-08 -1.1369506000788629e-07 0.0000000000000000e+00  4.9709130448588517e-08 -5.7109451652699204e-08 0.0000000000000000e+00  5.7458319404083086e-08 4.9808826836821883e-08 0.0000000000000000e+00  1.1500888766949282e-07 9.9148308416427418e-08 0.0000000000000000e+00  1.7254366431711263e-07 1.4798955487727177e-07 0.0000000000000000e+00  2.3014182148940548e-07 1.9632396466937473e-07 0.0000000000000000e+00  2.8770393745548699e-07 2.4414079092266311e-07 0.0000000000000000e+00  3.4530827830183030e-07 2.9140452469738671e-07 0.0000000000000000e+00  4.0288388112639829e-07 3.3818501316006615e-07 0.0000000000000000e+00  4.6054741424179008e-07 3.8439304114031840e-07 0.0000000000000000e+00  5.1810704536726502e-07 4.3002544706733530e-07 0.0000000000000000e+00  5.7567093000324938e-07 4.7518154408569648e-07 0.0000000000000000e+00  6.3340736129484493e-07 5.1987571368607644e-07 0.0000000000000000e+00  6.9174403300935033e-07 5.6446900659124389e-07 0.0000000000000000e+00  7.5206028451758562e-07 6.1005964235108290e-07 0.0000000000000000e+00  8.1896579887346422e-07 6.5991368578122962e-07 0.0000000000000000e+00  9.0334605992805355e-07 7.2171611768689314e-07 0.0000000000000000e+00  1.0093749613451911e-06 7.9779105181403980e-07 0.0000000000000000e+00  1.1227492127445122e-06 8.7743811689395375e-07 0.0000000000000000e+00  1.2371685672714643e-06 9.5550957590287180e-07 0.0000000000000000e+00  1.3514320059864353e-06 1.0317285490524130e-06 0.0000000000000000e+00  1.4657660016610032e-06 1.1055984919715271e-06 0.0000000000000000e+00  1.5798307489162487e-06 1.1775132063326415e-06 0.0000000000000000e+00  1.6940447964135093e-06 1.2472181273401164e-06 0.0000000000000000e+00  1.8078978741199824e-06 1.3149421147728926e-06 0.0000000000000000e+00  1.9218411281321084e-06 1.3806469764507741e-06 0.0000000000000000e+00  2.0356880720902278e-06 1.4442262767445063e-06 0.0000000000000000e+00  2.1494044734283011e-06 1.5057063504374938e-06 0.0000000000000000e+00  2.2628210017917310e-06 1.5651414299762712e-06 0.0000000000000000e+00  2.3760316692460455e-06 1.6228116882238217e-06 0.0000000000000000e+00  2.4895816808192506e-06 1.6783290525439970e-06 0.0000000000000000e+00  2.6028171353062125e-06 1.7318871128154337e-06 0.0000000000000000e+00  2.7160981687318905e-06 1.7833908631376434e-06 0.0000000000000000e+00  2.8290184565828056e-06 1.8327128981413290e-06 0.0000000000000000e+00  2.9418986615450313e-06 1.8805070111623194e-06 0.0000000000000000e+00  3.0549078695050962e-06 1.9260804799624324e-06 0.0000000000000000e+00  3.1675425378033212e-06 1.9697394588297231e-06 0.0000000000000000e+00  3.2801643569942191e-06 2.0114344738492398e-06 0.0000000000000000e+00  3.3927899204022502e-06 2.0513324431772419e-06 0.0000000000000000e+00  3.5053536065562990e-06 2.0891687515639800e-06 0.0000000000000000e+00  3.6177802276343056e-06 2.1251383224429513e-06 0.0000000000000000e+00  3.7302482731237866e-06 2.1592143429239763e-06 0.0000000000000000e+00  3.8425664642424943e-06 2.1911455963630331e-06 0.0000000000000000e+00  3.9547490472027265e-06 2.2214256105191888e-06 0.0000000000000000e+00  4.0671500700693950e-06 2.2495876827990257e-06 0.0000000000000000e+00  4.1790626304751428e-06 2.2758882465832432e-06 0.0000000000000000e+00  4.2909707898356521e-06 2.3004699342556039e-06 0.0000000000000000e+00  4.4031113440946821e-06 2.3232115008696088e-06 0.0000000000000000e+00  4.5151666818371702e-06 2.3438609780583329e-06 0.0000000000000000e+00  4.6271753585484870e-06 2.3625826118654006e-06 0.0000000000000000e+00  4.7390976921324579e-06 2.3795360526130746e-06 0.0000000000000000e+00  4.8509947930821197e-06 2.3945983757252182e-06 0.0000000000000000e+00  4.9628483012220183e-06 2.4077598971023802e-06 0.0000000000000000e+00  5.0747418687895361e-06 2.4190337654068333e-06 0.0000000000000000e+00  5.1866193181229574e-06 2.4284066632803675e-06 0.0000000000000000e+00  5.2982641890903862e-06 2.4358534047925749e-06 0.0000000000000000e+00  5.4101134193771606e-06 2.4415795445225414e-06 0.0000000000000000e+00  5.5219711442336568e-06 2.4452480652265695e-06 0.0000000000000000e+00  5.6337135035960998e-06 2.4470864162818846e-06 0.0000000000000000e+00  5.7454375778531209e-06 2.4470712321271838e-06 0.0000000000000000e+00  5.8571453877928218e-06 2.4454212900806285e-06 0.0000000000000000e+00  5.9690415450093726e-06 2.4414737805883868e-06 0.0000000000000000e+00  6.0808055673389231e-06 2.4359120461676267e-06 0.0000000000000000e+00  6.1925173451841925e-06 2.4285356365988449e-06 0.0000000000000000e+00  6.3044571915828897e-06 2.4190324205974288e-06 0.0000000000000000e+00  6.4162755002076539e-06 2.4077806004038801e-06 0.0000000000000000e+00  6.5281971599220902e-06 2.3945886551470749e-06 0.0000000000000000e+00  6.6401876825149007e-06 2.3795848073915313e-06 0.0000000000000000e+00  6.7520627877025799e-06 2.3625989007415823e-06 0.0000000000000000e+00  6.8639384045159291e-06 2.3438158200481383e-06 0.0000000000000000e+00  6.9760362032278535e-06 2.3230526258142789e-06 0.0000000000000000e+00  7.0879565492238475e-06 2.3004593318277331e-06 0.0000000000000000e+00  7.2000985790128325e-06 2.2761424332178461e-06 0.0000000000000000e+00  7.3123476530650812e-06 2.2496810177033773e-06 0.0000000000000000e+00  7.4243438988619746e-06 2.2214324090402779e-06 0.0000000000000000e+00  7.5366829688673527e-06 2.1912391819275456e-06 0.0000000000000000e+00  7.6490140926636078e-06 2.1591344618111837e-06 0.0000000000000000e+00  7.7614838697179349e-06 2.1251316345350686e-06 0.0000000000000000e+00  7.8737679573417435e-06 2.0890870399380362e-06 0.0000000000000000e+00  7.9863607027758325e-06 2.0513730697637730e-06 0.0000000000000000e+00  8.0990324701039082e-06 2.0115112179351490e-06 0.0000000000000000e+00  8.2116108559823773e-06 1.9697639666801866e-06 0.0000000000000000e+00  8.3243498345309831e-06 1.9260619453642115e-06 0.0000000000000000e+00  8.4372452898907845e-06 1.8805767452907537e-06 0.0000000000000000e+00  8.5502883111927667e-06 1.8328381688873310e-06 0.0000000000000000e+00  8.6631175967233272e-06 1.7833388525268319e-06 0.0000000000000000e+00  8.7763578971027201e-06 1.7318543775888210e-06 0.0000000000000000e+00  8.8896165485914754e-06 1.6782978141428026e-06 0.0000000000000000e+00  9.0031004509228364e-06 1.6227988885998369e-06 0.0000000000000000e+00  9.1164349327845733e-06 1.5651529899407456e-06 0.0000000000000000e+00  9.2298453949614572e-06 1.5056683532495803e-06 0.0000000000000000e+00  9.3435690695676240e-06 1.4442068347329997e-06 0.0000000000000000e+00  9.4573355904783049e-06 1.3806310373220976e-06 0.0000000000000000e+00  9.5712635736464937e-06 1.3148839548899349e-06 0.0000000000000000e+00  9.6851295892314605e-06 1.2472000054197542e-06 0.0000000000000000e+00  9.7993361921397625e-06 1.1775023318083647e-06 0.0000000000000000e+00  9.9134260701705168e-06 1.1055896634232680e-06 0.0000000000000000e+00  1.0027751410733329e-05 1.0315890564630366e-06 0.0000000000000000e+00  1.0141958762964982e-05 9.5554536084560401e-07 0.0000000000000000e+00  1.0256441807549114e-05 8.7742386110955906e-07 0.0000000000000000e+00  1.0369834423283751e-05 7.9779139506208860e-07 0.0000000000000000e+00  1.0475884574803597e-05 7.2170223950799984e-07 0.0000000000000000e+00  1.0560179871119151e-05 6.5988884664667578e-07 0.0000000000000000e+00  1.0627115422946159e-05 6.1006642531582435e-07 0.0000000000000000e+00  1.0687436817331915e-05 5.6446723270242758e-07 0.0000000000000000e+00  1.0745781131286227e-05 5.1987058450666177e-07 0.0000000000000000e+00  1.0803515366950230e-05 4.7517596406323971e-07 0.0000000000000000e+00  1.0861078874995361e-05 4.3001998404680924e-07 0.0000000000000000e+00  1.0918638994419524e-05 3.8438628253992181e-07 0.0000000000000000e+00  1.0976302167783824e-05 3.3817863273968676e-07 0.0000000000000000e+00  1.1033877646105714e-05 2.9139820938453707e-07 0.0000000000000000e+00  1.1091481249700127e-05 2.4413498011169656e-07 0.0000000000000000e+00  1.1149043602647053e-05 1.9631984341590987e-07 0.0000000000000000e+00  1.1206641980560332e-05 1.4798655461823398e-07 0.0000000000000000e+00  1.1264176900383574e-05 9.9146339758391193e-08 0.0000000000000000e+00  1.1321727528043107e-05 4.9807822938099161e-08 0.0000000000000000e+00  1.1329477747001728e-05 -5.7109465594383895e-08 0.0000000000000000e+00  1.1279580536928986e-05 -1.1369513274808351e-07 0.0000000000000000e+00  1.1229727622828758e-05 -1.6976146387287705e-07 0.0000000000000000e+00  1.1179774685886718e-05 -2.2530485301616386e-07 0.0000000000000000e+00  1.1129865588682014e-05 -2.8031036183731619e-07 0.0000000000000000e+00  1.1079918845603557e-05 -3.3483449287086234e-07 0.0000000000000000e+00  1.1029941514417691e-05 -3.8883682688041870e-07 0.0000000000000000e+00  1.0979950678740748e-05 -4.4229446875987435e-07 0.0000000000000000e+00  1.0929956236626685e-05 -4.9521478846806247e-07 0.0000000000000000e+00  1.0879995546057916e-05 -5.4763175470366865e-07 0.0000000000000000e+00  1.0829834380874871e-05 -5.9961786437820852e-07 0.0000000000000000e+00  1.0779157161616469e-05 -6.5163347538934348e-07 0.0000000000000000e+00  1.0726847990197211e-05 -7.0471125642025504e-07 0.0000000000000000e+00  1.0669176984008512e-05 -7.6244024322524266e-07 0.0000000000000000e+00  1.0597221908348797e-05 -8.3352539829839156e-07 0.0000000000000000e+00  1.0505789854868175e-05 -9.2238719689111909e-07 0.0000000000000000e+00  1.0406829947148921e-05 -1.0163694545614131e-06 0.0000000000000000e+00  1.0307094274023986e-05 -1.1090592041687897e-06 0.0000000000000000e+00  1.0206886929568207e-05 -1.1999516656329746e-06 0.0000000000000000e+00  1.0106984665361014e-05 -1.2885531682435747e-06 0.0000000000000000e+00  1.0006763806018944e-05 -1.3749115972087184e-06 0.0000000000000000e+00  9.9068077961987432e-06 -1.4589797061116074e-06 0.0000000000000000e+00  9.8066497842834109e-06 -1.5411060080535309e-06 0.0000000000000000e+00  9.7064677706721146e-06 -1.6211154604416051e-06 0.0000000000000000e+00  9.6063181543372049e-06 -1.6988097124264608e-06 0.0000000000000000e+00  9.5062334982740743e-06 -1.7742468601770926e-06 0.0000000000000000e+00  9.4062380205761197e-06 -1.8475527439958580e-06 0.0000000000000000e+00  9.3061493631273711e-06 -1.9184461633059953e-06 0.0000000000000000e+00  9.2064159038744127e-06 -1.9874209480882773e-06 0.0000000000000000e+00  9.1065226655003596e-06 -2.0540592125549915e-06 0.0000000000000000e+00  9.0069163079752730e-06 -2.1185030512073836e-06 0.0000000000000000e+00  8.9072193037623901e-06 -2.1806706582904046e-06 0.0000000000000000e+00  8.8080665858752576e-06 -2.2406912250073173e-06 0.0000000000000000e+00  8.7087029344199869e-06 -2.2984864012589068e-06 0.0000000000000000e+00  8.6096570603141387e-06 -2.3538241463811330e-06 0.0000000000000000e+00  8.5108619907340791e-06 -2.4073174225881226e-06 0.0000000000000000e+00  8.4121675223023775e-06 -2.4582839542448220e-06 0.0000000000000000e+00  8.3138869657650217e-06 -2.5070748866778829e-06 0.0000000000000000e+00  8.2158172808813329e-06 -2.5536506809116057e-06 0.0000000000000000e+00  8.1183380928583150e-06 -2.5981000527521978e-06 0.0000000000000000e+00  8.0207429835239135e-06 -2.6402053971798828e-06 0.0000000000000000e+00  7.9237798245865126e-06 -2.6800365871968268e-06 0.0000000000000000e+00  7.8270547210535515e-06 -2.7175676897314617e-06 0.0000000000000000e+00  7.7308835704620000e-06 -2.7527086244594318e-06 0.0000000000000000e+00  7.6353366024382413e-06 -2.7857443523820498e-06 0.0000000000000000e+00  7.5404532385872632e-06 -2.8166499527908240e-06 0.0000000000000000e+00  7.4458160627243249e-06 -2.8450633067707481e-06 0.0000000000000000e+00  7.3522331964122139e-06 -2.8713323463038855e-06 0.0000000000000000e+00  7.2601880168513343e-06 -2.8952849759998829e-06 0.0000000000000000e+00  7.1753055936745914e-06 -2.9153925069146429e-06 0.0000000000000000e+00  7.1087096746710732e-06 -2.9299180428505067e-06 0.0000000000000000e+00  7.0560686362629049e-06 -2.9406890677130301e-06 0.0000000000000000e+00  7.0087682458733558e-06 -2.9497707372874247e-06 0.0000000000000000e+00  6.9632723041656519e-06 -2.9578808945676540e-06 0.0000000000000000e+00  6.9186663364681680e-06 -2.9653212799102991e-06 0.0000000000000000e+00  6.8745779118905766e-06 -2.9722392932600275e-06 0.0000000000000000e+00  6.8309763816797949e-06 -2.9786555732839585e-06 0.0000000000000000e+00  6.7877659143266213e-06 -2.9844361137402947e-06 0.0000000000000000e+00  6.7451966827993135e-06 -2.9897450513343997e-06 0.0000000000000000e+00  6.7032300340832878e-06 -2.9943855482440549e-06 0.0000000000000000e+00  6.6620647204963936e-06 -2.9986351086686519e-06 0.0000000000000000e+00  6.6217822289853045e-06 -3.0023839921964970e-06 0.0000000000000000e+00  6.5830450085537699e-06 -3.0057960634936642e-06 0.0000000000000000e+00  6.5465801477828755e-06 -3.0091700751899995e-06 0.0000000000000000e+00  6.4788113345283677e-06 -3.0252405091094034e-06 0.0000000000000000e+00  6.4414031355376236e-06 -3.0363855319030963e-06 0.0000000000000000e+00  6.4028897740721728e-06 -3.0470945492452605e-06 0.0000000000000000e+00  6.3628039683633486e-06 -3.0573096256566157e-06 0.0000000000000000e+00  6.3220037019944450e-06 -3.0668874753302745e-06 0.0000000000000000e+00  6.2806408152955501e-06 -3.0757742760498887e-06 0.0000000000000000e+00  6.2388673344764958e-06 -3.0840417878983150e-06 0.0000000000000000e+00  6.1966707261509288e-06 -3.0917052045544549e-06 0.0000000000000000e+00  6.1541781603854574e-06 -3.0987472287706728e-06 0.0000000000000000e+00  6.1115906605222115e-06 -3.1051097256932860e-06 0.0000000000000000e+00  6.0686580117802726e-06 -3.1109275216602291e-06 0.0000000000000000e+00  6.0253327531173423e-06 -3.1162203099362821e-06 0.0000000000000000e+00  5.9810787955600468e-06 -3.1209420191780951e-06 0.0000000000000000e+00  5.9341001844660717e-06 -3.1252284284928664e-06 0.0000000000000000e+00  5.8794268476651865e-06 -3.1292870100144008e-06 0.0000000000000000e+00  5.8090972376960045e-06 -3.1331531012228073e-06 0.0000000000000000e+00  5.7265040749655696e-06 -3.1358703303497107e-06 0.000000