<?xml version="1.0"?>
<VTKFile type="UnstructuredGrid"  version="0.1"  >
<UnstructuredGrid>
<Piece  NumberOfPoints="561" NumberOfCells="1000">
<Points>
<DataArray  type="Float64"  NumberOfComponents="3"  format="ascii">0 0 0  0.0004 0 0  0.0008 0 0  0.0012 0 0  0.0016 0 0  0.002 0 0  0.0024 0 0  0.0028 0 0  0.0032 0 0  0.0036 0 0  0.004 0 0  0.0044 0 0  0.0048 0 0  0.0052 0 0  0.005600000000000001 0 0  0.006 0 0  0.0064 0 0  0.0068 0 0  0.0072 0 0  0.0076 0 0  0.008 0 0  0.008399999999999999 0 0  0.008800000000000001 0 0  0.0092 0 0  0.009599999999999999 0 0  0.01 0 0  0.0104 0 0  0.0108 0 0  0.0112 0 0  0.0116 0 0  0.012 0 0  0.0124 0 0  0.0128 0 0  0.0132 0 0  0.0136 0 0  0.014 0 0  0.0144 0 0  0.0148 0 0  0.0152 0 0  0.0156 0 0  0.016 0 0  0.0164 0 0  0.0168 0 0  0.0172 0 0  0.0176 0 0  0.018 0 0  0.0184 0 0  0.0188 0 0  0.0192 0 0  0.0196 0 0  0.02 0 0  0 0.0012 0  0.0004 0.0012 0  0.0008 0.0012 0  0.0012 0.0012 0  0.0016 0.0012 0  0.002 0.0012 0  0.0024 0.0012 0  0.0028 0.0012 0  0.0032 0.0012 0  0.0036 0.0012 0  0.004 0.0012 0  0.0044 0.0012 0  0.0048 0.0012 0  0.0052 0.0012 0  0.005600000000000001 0.0012 0  0.006 0.0012 0  0.0064 0.0012 0  0.0068 0.0012 0  0.0072 0.0012 0  0.0076 0.0012 0  0.008 0.0012 0  0.008399999999999999 0.0012 0  0.008800000000000001 0.0012 0  0.0092 0.0012 0  0.009599999999999999 0.0012 0  0.01 0.0012 0  0.0104 0.0012 0  0.0108 0.0012 0  0.0112 0.0012 0  0.0116 0.0012 0  0.012 0.0012 0  0.0124 0.0012 0  0.0128 0.0012 0  0.0132 0.0012 0  0.0136 0.0012 0  0.014 0.0012 0  0.0144 0.0012 0  0.0148 0.0012 0  0.0152 0.0012 0  0.0156 0.0012 0  0.016 0.0012 0  0.0164 0.0012 0  0.0168 0.0012 0  0.0172 0.0012 0  0.0176 0.0012 0  0.018 0.0012 0  0.0184 0.0012 0  0.0188 0.0012 0  0.0192 0.0012 0  0.0196 0.0012 0  0.02 0.0012 0  0 0.0024 0  0.0004 0.0024 0  0.0008 0.0024 0  0.0012 0.0024 0  0.0016 0.0024 0  0.002 0.0024 0  0.0024 0.0024 0  0.0028 0.0024 0  0.0032 0.0024 0  0.0036 0.0024 0  0.004 0.0024 0  0.0044 0.0024 0  0.0048 0.0024 0  0.0052 0.0024 0  0.005600000000000001 0.0024 0  0.006 0.0024 0  0.0064 0.0024 0  0.0068 0.0024 0  0.0072 0.0024 0  0.0076 0.0024 0  0.008 0.0024 0  0.008399999999999999 0.0024 0  0.008800000000000001 0.0024 0  0.0092 0.0024 0  0.009599999999999999 0.0024 0  0.01 0.0024 0  0.0104 0.0024 0  0.0108 0.0024 0  0.0112 0.0024 0  0.0116 0.0024 0  0.012 0.0024 0  0.0124 0.0024 0  0.0128 0.0024 0  0.0132 0.0024 0  0.0136 0.0024 0  0.014 0.0024 0  0.0144 0.0024 0  0.0148 0.0024 0  0.0152 0.0024 0  0.0156 0.0024 0  0.016 0.0024 0  0.0164 0.0024 0  0.0168 0.0024 0  0.0172 0.0024 0  0.0176 0.0024 0  0.018 0.0024 0  0.0184 0.0024 0  0.0188 0.0024 0  0.0192 0.0024 0  0.0196 0.0024 0  0.02 0.0024 0  0 0.0036 0  0.0004 0.0036 0  0.0008 0.0036 0  0.0012 0.0036 0  0.0016 0.0036 0  0.002 0.0036 0  0.0024 0.0036 0  0.0028 0.0036 0  0.0032 0.0036 0  0.0036 0.0036 0  0.004 0.0036 0  0.0044 0.0036 0  0.0048 0.0036 0  0.0052 0.0036 0  0.005600000000000001 0.0036 0  0.006 0.0036 0  0.0064 0.0036 0  0.0068 0.0036 0  0.0072 0.0036 0  0.0076 0.0036 0  0.008 0.0036 0  0.008399999999999999 0.0036 0  0.008800000000000001 0.0036 0  0.0092 0.0036 0  0.009599999999999999 0.0036 0  0.01 0.0036 0  0.0104 0.0036 0  0.0108 0.0036 0  0.0112 0.0036 0  0.0116 0.0036 0  0.012 0.0036 0  0.0124 0.0036 0  0.0128 0.0036 0  0.0132 0.0036 0  0.0136 0.0036 0  0.014 0.0036 0  0.0144 0.0036 0  0.0148 0.0036 0  0.0152 0.0036 0  0.0156 0.0036 0  0.016 0.0036 0  0.0164 0.0036 0  0.0168 0.0036 0  0.0172 0.0036 0  0.0176 0.0036 0  0.018 0.0036 0  0.0184 0.0036 0  0.0188 0.0036 0  0.0192 0.0036 0  0.0196 0.0036 0  0.02 0.0036 0  0 0.0048 0  0.0004 0.0048 0  0.0008 0.0048 0  0.0012 0.0048 0  0.0016 0.0048 0  0.002 0.0048 0  0.0024 0.0048 0  0.0028 0.0048 0  0.0032 0.0048 0  0.0036 0.0048 0  0.004 0.0048 0  0.0044 0.0048 0  0.0048 0.0048 0  0.0052 0.0048 0  0.005600000000000001 0.0048 0  0.006 0.0048 0  0.0064 0.0048 0  0.0068 0.0048 0  0.0072 0.0048 0  0.0076 0.0048 0  0.008 0.0048 0  0.008399999999999999 0.0048 0  0.008800000000000001 0.0048 0  0.0092 0.0048 0  0.009599999999999999 0.0048 0  0.01 0.0048 0  0.0104 0.0048 0  0.0108 0.0048 0  0.0112 0.0048 0  0.0116 0.0048 0  0.012 0.0048 0  0.0124 0.0048 0  0.0128 0.0048 0  0.0132 0.0048 0  0.0136 0.0048 0  0.014 0.0048 0  0.0144 0.0048 0  0.0148 0.0048 0  0.0152 0.0048 0  0.0156 0.0048 0  0.016 0.0048 0  0.0164 0.0048 0  0.0168 0.0048 0  0.0172 0.0048 0  0.0176 0.0048 0  0.018 0.0048 0  0.0184 0.0048 0  0.0188 0.0048 0  0.0192 0.0048 0  0.0196 0.0048 0  0.02 0.0048 0  0 0.006 0  0.0004 0.006 0  0.0008 0.006 0  0.0012 0.006 0  0.0016 0.006 0  0.002 0.006 0  0.0024 0.006 0  0.0028 0.006 0  0.0032 0.006 0  0.0036 0.006 0  0.004 0.006 0  0.0044 0.006 0  0.0048 0.006 0  0.0052 0.006 0  0.005600000000000001 0.006 0  0.006 0.006 0  0.0064 0.006 0  0.0068 0.006 0  0.0072 0.006 0  0.0076 0.006 0  0.008 0.006 0  0.008399999999999999 0.006 0  0.008800000000000001 0.006 0  0.0092 0.006 0  0.009599999999999999 0.006 0  0.01 0.006 0  0.0104 0.006 0  0.0108 0.006 0  0.0112 0.006 0  0.0116 0.006 0  0.012 0.006 0  0.0124 0.006 0  0.0128 0.006 0  0.0132 0.006 0  0.0136 0.006 0  0.014 0.006 0  0.0144 0.006 0  0.0148 0.006 0  0.0152 0.006 0  0.0156 0.006 0  0.016 0.006 0  0.0164 0.006 0  0.0168 0.006 0  0.0172 0.006 0  0.0176 0.006 0  0.018 0.006 0  0.0184 0.006 0  0.0188 0.006 0  0.0192 0.006 0  0.0196 0.006 0  0.02 0.006 0  0 0.007200000000000001 0  0.0004 0.007200000000000001 0  0.0008 0.007200000000000001 0  0.0012 0.007200000000000001 0  0.0016 0.007200000000000001 0  0.002 0.007200000000000001 0  0.0024 0.007200000000000001 0  0.0028 0.007200000000000001 0  0.0032 0.007200000000000001 0  0.0036 0.007200000000000001 0  0.004 0.007200000000000001 0  0.0044 0.007200000000000001 0  0.0048 0.007200000000000001 0  0.0052 0.007200000000000001 0  0.005600000000000001 0.007200000000000001 0  0.006 0.007200000000000001 0  0.0064 0.007200000000000001 0  0.0068 0.007200000000000001 0  0.0072 0.007200000000000001 0  0.0076 0.007200000000000001 0  0.008 0.007200000000000001 0  0.008399999999999999 0.007200000000000001 0  0.008800000000000001 0.007200000000000001 0  0.0092 0.007200000000000001 0  0.009599999999999999 0.007200000000000001 0  0.01 0.007200000000000001 0  0.0104 0.007200000000000001 0  0.0108 0.007200000000000001 0  0.0112 0.007200000000000001 0  0.0116 0.007200000000000001 0  0.012 0.007200000000000001 0  0.0124 0.007200000000000001 0  0.0128 0.007200000000000001 0  0.0132 0.007200000000000001 0  0.0136 0.007200000000000001 0  0.014 0.007200000000000001 0  0.0144 0.007200000000000001 0  0.0148 0.007200000000000001 0  0.0152 0.007200000000000001 0  0.0156 0.007200000000000001 0  0.016 0.007200000000000001 0  0.0164 0.007200000000000001 0  0.0168 0.007200000000000001 0  0.0172 0.007200000000000001 0  0.0176 0.007200000000000001 0  0.018 0.007200000000000001 0  0.0184 0.007200000000000001 0  0.0188 0.007200000000000001 0  0.0192 0.007200000000000001 0  0.0196 0.007200000000000001 0  0.02 0.007200000000000001 0  0 0.008400000000000001 0  0.0004 0.008400000000000001 0  0.0008 0.008400000000000001 0  0.0012 0.008400000000000001 0  0.0016 0.008400000000000001 0  0.002 0.008400000000000001 0  0.0024 0.008400000000000001 0  0.0028 0.008400000000000001 0  0.0032 0.008400000000000001 0  0.0036 0.008400000000000001 0  0.004 0.008400000000000001 0  0.0044 0.008400000000000001 0  0.0048 0.008400000000000001 0  0.0052 0.008400000000000001 0  0.005600000000000001 0.008400000000000001 0  0.006 0.008400000000000001 0  0.0064 0.008400000000000001 0  0.0068 0.008400000000000001 0  0.0072 0.008400000000000001 0  0.0076 0.008400000000000001 0  0.008 0.008400000000000001 0  0.008399999999999999 0.008400000000000001 0  0.008800000000000001 0.008400000000000001 0  0.0092 0.008400000000000001 0  0.009599999999999999 0.008400000000000001 0  0.01 0.008400000000000001 0  0.0104 0.008400000000000001 0  0.0108 0.008400000000000001 0  0.0112 0.008400000000000001 0  0.0116 0.008400000000000001 0  0.012 0.008400000000000001 0  0.0124 0.008400000000000001 0  0.0128 0.008400000000000001 0  0.0132 0.008400000000000001 0  0.0136 0.008400000000000001 0  0.014 0.008400000000000001 0  0.0144 0.008400000000000001 0  0.0148 0.008400000000000001 0  0.0152 0.008400000000000001 0  0.0156 0.008400000000000001 0  0.016 0.008400000000000001 0  0.0164 0.008400000000000001 0  0.0168 0.008400000000000001 0  0.0172 0.008400000000000001 0  0.0176 0.008400000000000001 0  0.018 0.008400000000000001 0  0.0184 0.008400000000000001 0  0.0188 0.008400000000000001 0  0.0192 0.008400000000000001 0  0.0196 0.008400000000000001 0  0.02 0.008400000000000001 0  0 0.009600000000000001 0  0.0004 0.009600000000000001 0  0.0008 0.009600000000000001 0  0.0012 0.009600000000000001 0  0.0016 0.009600000000000001 0  0.002 0.009600000000000001 0  0.0024 0.009600000000000001 0  0.0028 0.009600000000000001 0  0.0032 0.009600000000000001 0  0.0036 0.009600000000000001 0  0.004 0.009600000000000001 0  0.0044 0.009600000000000001 0  0.0048 0.009600000000000001 0  0.0052 0.009600000000000001 0  0.005600000000000001 0.009600000000000001 0  0.006 0.009600000000000001 0  0.0064 0.009600000000000001 0  0.0068 0.009600000000000001 0  0.0072 0.009600000000000001 0  0.0076 0.009600000000000001 0  0.008 0.009600000000000001 0  0.008399999999999999 0.009600000000000001 0  0.008800000000000001 0.009600000000000001 0  0.0092 0.009600000000000001 0  0.009599999999999999 0.009600000000000001 0  0.01 0.009600000000000001 0  0.0104 0.009600000000000001 0  0.0108 0.009600000000000001 0  0.0112 0.009600000000000001 0  0.0116 0.009600000000000001 0  0.012 0.009600000000000001 0  0.0124 0.009600000000000001 0  0.0128 0.009600000000000001 0  0.0132 0.009600000000000001 0  0.0136 0.009600000000000001 0  0.014 0.009600000000000001 0  0.0144 0.009600000000000001 0  0.0148 0.009600000000000001 0  0.0152 0.009600000000000001 0  0.0156 0.009600000000000001 0  0.016 0.009600000000000001 0  0.0164 0.009600000000000001 0  0.0168 0.009600000000000001 0  0.0172 0.009600000000000001 0  0.017
[...]
<PointData  Vectors="U [m]"> 
<DataArray  type="Float64"  Name="U [m]"  NumberOfComponents="3" format="ascii">-4.5710467790099818e-06 -3.8270940181652222e-05 0.0000000000000000e+00  -4.5352817849309913e-06 -3.7561388383769605e-05 0.0000000000000000e+00  -4.5008963907509161e-06 -3.6881475698261985e-05 0.0000000000000000e+00  -4.4690900926123220e-06 -3.6261822214306077e-05 0.0000000000000000e+00  -4.4348464042004136e-06 -3.5679748690680268e-05 0.0000000000000000e+00  -4.3890215535747690e-06 -3.5174248634867624e-05 0.0000000000000000e+00  -4.3351053879740502e-06 -3.4702718840245230e-05 0.0000000000000000e+00  -4.2602322801985315e-06 -3.4306684903617287e-05 0.0000000000000000e+00  -4.1729607271885699e-06 -3.3940208467307968e-05 0.0000000000000000e+00  -4.0597013485561844e-06 -3.3638216805174879e-05 0.0000000000000000e+00  -3.9317633541189751e-06 -3.3363237719197794e-05 0.0000000000000000e+00  -3.7764252755898647e-06 -3.3136981735397331e-05 0.0000000000000000e+00  -3.6059681839172361e-06 -3.2937311880989181e-05 0.0000000000000000e+00  -3.4093688290686302e-06 -3.2769430345505478e-05 0.0000000000000000e+00  -3.1985858388544473e-06 -3.2629330437169959e-05 0.0000000000000000e+00  -2.9646450942731582e-06 -3.2505172480014437e-05 0.0000000000000000e+00  -2.7183429887360847e-06 -3.2410946560059043e-05 0.0000000000000000e+00  -2.4528126433889934e-06 -3.2319137544994850e-05 0.0000000000000000e+00  -2.1772264172743363e-06 -3.2259752002278228e-05 0.0000000000000000e+00  -1.8867308382994682e-06 -3.2192088462938099e-05 0.0000000000000000e+00  -1.5886863348235675e-06 -3.2159201133462995e-05 0.0000000000000000e+00  -1.2801085462256641e-06 -3.2110239384543691e-05 0.0000000000000000e+00  -9.6652733691510839e-07 -3.2097934287030568e-05 0.0000000000000000e+00  -6.4669850288252220e-07 -3.2064516449912583e-05 0.0000000000000000e+00  -3.2438321838308799e-07 -3.2068956008032976e-05 0.0000000000000000e+00  -7.5453513465734286e-19 -3.2049821554896532e-05 0.0000000000000000e+00  3.2438321838157979e-07 -3.2068956008032990e-05 0.0000000000000000e+00  6.4669850288101502e-07 -3.2064516449912610e-05 0.0000000000000000e+00  9.6652733691360808e-07 -3.2097934287030622e-05 0.0000000000000000e+00  1.2801085462241557e-06 -3.2110239384543786e-05 0.0000000000000000e+00  1.5886863348220670e-06 -3.2159201133463144e-05 0.0000000000000000e+00  1.8867308382979683e-06 -3.2192088462938261e-05 0.0000000000000000e+00  2.1772264172728421e-06 -3.2259752002278411e-05 0.0000000000000000e+00  2.4528126433874958e-06 -3.2319137544995040e-05 0.0000000000000000e+00  2.7183429887345863e-06 -3.2410946560059260e-05 0.0000000000000000e+00  2.9646450942716518e-06 -3.2505172480014688e-05 0.0000000000000000e+00  3.1985858388529400e-06 -3.2629330437170250e-05 0.0000000000000000e+00  3.4093688290671149e-06 -3.2769430345505824e-05 0.0000000000000000e+00  3.6059681839157216e-06 -3.2937311880989560e-05 0.0000000000000000e+00  3.7764252755883506e-06 -3.3136981735397779e-05 0.0000000000000000e+00  3.9317633541174674e-06 -3.3363237719198302e-05 0.0000000000000000e+00  4.0597013485546783e-06 -3.3638216805175462e-05 0.0000000000000000e+00  4.1729607271870656e-06 -3.3940208467308571e-05 0.0000000000000000e+00  4.2602322801970263e-06 -3.4306684903617951e-05 0.0000000000000000e+00  4.3351053879725501e-06 -3.4702718840245941e-05 0.0000000000000000e+00  4.3890215535732681e-06 -3.5174248634868423e-05 0.0000000000000000e+00  4.4348464041989186e-06 -3.5679748690681136e-05 0.0000000000000000e+00  4.4690900926108295e-06 -3.6261822214307033e-05 0.0000000000000000e+00  4.5008963907494313e-06 -3.6881475698263002e-05 0.0000000000000000e+00  4.5352817849295174e-06 -3.7561388383770682e-05 0.0000000000000000e+00  4.5710467790085172e-06 -3.8270940181653347e-05 0.0000000000000000e+00  -6.7416854657630575e-06 -3.8122129715775365e-05 0.0000000000000000e+00  -6.5977498116084618e-06 -3.7373123210747516e-05 0.0000000000000000e+00  -6.4577960104809004e-06 -3.6693257996814670e-05 0.0000000000000000e+00  -6.3100695007896048e-06 -3.6060711407100550e-05 0.0000000000000000e+00  -6.1499867251175042e-06 -3.5507877551752210e-05 0.0000000000000000e+00  -5.9820045400847715e-06 -3.4999437388490628e-05 0.0000000000000000e+00  -5.7948096553381694e-06 -3.4569923842795782e-05 0.0000000000000000e+00  -5.5992733520468543e-06 -3.4177663835577526e-05 0.0000000000000000e+00  -5.3821274555077673e-06 -3.3855320396612358e-05 0.0000000000000000e+00  -5.1563456696474496e-06 -3.3563287383241177e-05 0.0000000000000000e+00  -4.9091700825359483e-06 -3.3327416199078708e-05 0.0000000000000000e+00  -4.6534384899132247e-06 -3.3116984900316135e-05 0.0000000000000000e+00  -4.3781165528453062e-06 -3.2947141413214060e-05 0.0000000000000000e+00  -4.0947332518052772e-06 -3.2800345340005993e-05 0.0000000000000000e+00  -3.7944294564360578e-06 -3.2678871820846169e-05 0.0000000000000000e+00  -3.4869123449930956e-06 -3.2580161557698151e-05 0.0000000000000000e+00  -3.1655032952100572e-06 -3.2493159449245178e-05 0.0000000000000000e+00  -2.8379846021493840e-06 -3.2430056455495443e-05 0.0000000000000000e+00  -2.4996413683755260e-06 -3.2367398781136819e-05 0.0000000000000000e+00  -2.1564527024135776e-06 -3.2330468967980657e-05 0.0000000000000000e+00  -1.8053800078963242e-06 -3.2285327508575530e-05 0.0000000000000000e+00  -1.4508126920985438e-06 -3.2267814338970389e-05 0.0000000000000000e+00  -1.0911227130643802e-06 -3.2236035000611080e-05 0.0000000000000000e+00  -7.2932751623176348e-07 -3.2233395168384466e-05 0.0000000000000000e+00  -3.6501507345413946e-07 -3.2212928667182558e-05 0.0000000000000000e+00  -7.7003329576483451e-19 -3.2222428392330755e-05 0.0000000000000000e+00  3.6501507345259473e-07 -3.2212928667182578e-05 0.0000000000000000e+00  7.2932751623023046e-07 -3.2233395168384507e-05 0.0000000000000000e+00  1.0911227130628504e-06 -3.2236035000611141e-05 0.0000000000000000e+00  1.4508126920970234e-06 -3.2267814338970464e-05 0.0000000000000000e+00  1.8053800078948057e-06 -3.2285327508575659e-05 0.0000000000000000e+00  2.1564527024120690e-06 -3.2330468967980820e-05 0.0000000000000000e+00  2.4996413683740191e-06 -3.2367398781136995e-05 0.0000000000000000e+00  2.8379846021478856e-06 -3.2430056455495639e-05 0.0000000000000000e+00  3.1655032952085592e-06 -3.2493159449245381e-05 0.0000000000000000e+00  3.4869123449916095e-06 -3.2580161557698388e-05 0.0000000000000000e+00  3.7944294564345675e-06 -3.2678871820846453e-05 0.0000000000000000e+00  4.0947332518037965e-06 -3.2800345340006318e-05 0.0000000000000000e+00  4.3781165528438273e-06 -3.2947141413214439e-05 0.0000000000000000e+00  4.6534384899117593e-06 -3.3116984900316576e-05 0.0000000000000000e+00  4.9091700825344888e-06 -3.3327416199079223e-05 0.0000000000000000e+00  5.1563456696460079e-06 -3.3563287383241733e-05 0.0000000000000000e+00  5.3821274555063290e-06 -3.3855320396612975e-05 0.0000000000000000e+00  5.5992733520454338e-06 -3.4177663835578191e-05 0.0000000000000000e+00  5.7948096553367574e-06 -3.4569923842796501e-05 0.0000000000000000e+00  5.9820045400833756e-06 -3.4999437388491414e-05 0.0000000000000000e+00  6.1499867251161092e-06 -3.5507877551753064e-05 0.0000000000000000e+00  6.3100695007882267e-06 -3.6060711407101458e-05 0.0000000000000000e+00  6.4577960104795316e-06 -3.6693257996815652e-05 0.0000000000000000e+00  6.5977498116071142e-06 -3.7373123210748573e-05 0.0000000000000000e+00  6.7416854657617269e-06 -3.8122129715776523e-05 0.0000000000000000e+00  -9.1786376335276322e-06 -3.7479946201278711e-05 0.0000000000000000e+00  -8.9216424614101300e-06 -3.6695904205611305e-05 0.0000000000000000e+00  -8.6595359499683871e-06 -3.5987320919628355e-05 0.0000000000000000e+00  -8.3894673657667495e-06 -3.5376223299966857e-05 0.0000000000000000e+00  -8.1139584408942395e-06 -3.4825808291138820e-05 0.0000000000000000e+00  -7.8182650252513806e-06 -3.4361935958901296e-05 0.0000000000000000e+00  -7.5172686068605845e-06 -3.3945291118658545e-05 0.0000000000000000e+00  -7.1927632148922880e-06 -3.3603603887012854e-05 0.0000000000000000e+00  -6.8633246974455869e-06 -3.3296448318070026e-05 0.0000000000000000e+00  -6.5119296775272401e-06 -3.3051085293171932e-05 0.0000000000000000e+00  -6.1560909845561776e-06 -3.2830134917326235e-05 0.0000000000000000e+00  -5.7820944007311064e-06 -3.2656971714694759e-05 0.0000000000000000e+00  -5.4041978868947142e-06 -3.2501663253392081e-05 0.0000000000000000e+00  -5.0125142661625733e-06 -3.2380381522146190e-05 0.0000000000000000e+00  -4.6174925303403667e-06 -3.2273836204172604e-05 0.0000000000000000e+00  -4.2126922851973707e-06 -3.2188718818288154e-05 0.0000000000000000e+00  -3.8051173649293049e-06 -3.2117874558589215e-05 0.0000000000000000e+00  -3.3910097620743079e-06 -3.2057627673369756e-05 0.0000000000000000e+00  -2.9746874334014446e-06 -3.2012845289155340e-05 0.0000000000000000e+00  -2.5542500555914980e-06 -3.1969919413020406e-05 0.0000000000000000e+00  -2.1321542513055204e-06 -3.1944366796454386e-05 0.0000000000000000e+00  -1.7076456346158024e-06 -3.1914138402572328e-05 0.0000000000000000e+00  -1.2820324498647754e-06 -3.1903162642102439e-05 0.0000000000000000e+00  -8.5518213003439722e-07 -3.1883191853374773e-05 0.0000000000000000e+00  -4.2777979481089913e-07 -3.1883802402255371e-05 0.0000000000000000e+00  -7.8288523177754196e-19 -3.1873273865752231e-05 0.0000000000000000e+00  4.2777979480933816e-07 -3.1883802402255391e-05 0.0000000000000000e+00  8.5518213003284228e-07 -3.1883191853374800e-05 0.0000000000000000e+00  1.2820324498632391e-06 -3.1903162642102493e-05 0.0000000000000000e+00  1.7076456346142669e-06 -3.1914138402572422e-05 0.0000000000000000e+00  2.1321542513040025e-06 -3.1944366796454515e-05 0.0000000000000000e+00  2.5542500555899784e-06 -3.1969919413020562e-05 0.0000000000000000e+00  2.9746874333999373e-06 -3.2012845289155523e-05 0.0000000000000000e+00  3.3910097620728083e-06 -3.2057627673369953e-05 0.0000000000000000e+00  3.8051173649278252e-06 -3.2117874558589431e-05 0.0000000000000000e+00  4.2126922851958986e-06 -3.2188718818288398e-05 0.0000000000000000e+00  4.6174925303389106e-06 -3.2273836204172882e-05 0.0000000000000000e+00  5.0125142661611291e-06 -3.2380381522146508e-05 0.0000000000000000e+00  5.4041978868932894e-06 -3.2501663253392440e-05 0.0000000000000000e+00  5.7820944007296970e-06 -3.2656971714695193e-05 0.0000000000000000e+00  6.1560909845547919e-06 -3.2830134917326716e-05 0.0000000000000000e+00  6.5119296775258705e-06 -3.3051085293172467e-05 0.0000000000000000e+00  6.8633246974442384e-06 -3.3296448318070595e-05 0.0000000000000000e+00  7.1927632148909573e-06 -3.3603603887013457e-05 0.0000000000000000e+00  7.5172686068592851e-06 -3.3945291118659203e-05 0.0000000000000000e+00  7.8182650252500999e-06 -3.4361935958902028e-05 0.0000000000000000e+00  8.1139584408929859e-06 -3.4825808291139593e-05 0.0000000000000000e+00  8.3894673657655213e-06 -3.5376223299967717e-05 0.0000000000000000e+00  8.6595359499671927e-06 -3.5987320919629283e-05 0.0000000000000000e+00  8.9216424614089577e-06 -3.6695904205612315e-05 0.0000000000000000e+00  9.1786376335264989e-06 -3.7479946201279835e-05 0.0000000000000000e+00  -1.1779525401017051e-05 -3.6228039346260780e-05 0.0000000000000000e+00  -1.1406542299925069e-05 -3.5417347989374753e-05 0.0000000000000000e+00  -1.1024115636025310e-05 -3.4728913255331436e-05 0.0000000000000000e+00  -1.0640235961876162e-05 -3.4128393664492479e-05 0.0000000000000000e+00  -1.0231595745552485e-05 -3.3632237785183747e-05 0.0000000000000000e+00  -9.8215700969778039e-06 -3.3195691877985144e-05 0.0000000000000000e+00  -9.3820250502177757e-06 -3.2846009618061749e-05 0.0000000000000000e+00  -8.9416465303072943e-06 -3.2533447705300474e-05 0.0000000000000000e+00  -8.4746416254665439e-06 -3.2290391646246878e-05 0.0000000000000000e+00  -8.0074893865674861e-06 -3.2068807290770479e-05 0.0000000000000000e+00  -7.5203316977840178e-06 -3.1899991394343546e-05 0.0000000000000000e+00  -7.0335981069054490e-06 -3.1743745808030416e-05 0.0000000000000000e+00  -6.5341332379754669e-06 -3.1624917059401292e-05 0.0000000000000000e+00  -6.0354459058568617e-06 -3.1515223541102931e-05 0.0000000000000000e+00  -5.5302031482819544e-06 -3.1429540402671627e-05 0.0000000000000000e+00  -5.0258744918411134e-06 -3.1353273225346478e-05 0.0000000000000000e+00  -4.5193945136932721e-06 -3.1289819620386336e-05 0.0000000000000000e+00  -4.0137987852618684e-06 -3.1238132502462149e-05 0.0000000000000000e+00  -3.5086692286565201e-06 -3.1190317276469513e-05 0.0000000000000000e+00  -3.0042878427642057e-06 -3.1157395232971114e-05 0.0000000000000000e+00  -2.5015024797047576e-06 -3.1121582067456519e-05 0.0000000000000000e+00  -1.9992724710640711e-06 -3.1103655165488312e-05 0.0000000000000000e+00  -1.4986797860003012e-06 -3.1078130096022967e-05 0.0000000000000000e+00  -9.9842522872011891e-07 -3.1072764569746310e-05 0.0000000000000000e+00  -4.9915602839341649e-07 -3.1057031717379019e-05 0.0000000000000000e+00  -7.8815744381747542e-19 -3.1062672050959975e-05 0.0000000000000000e+00  4.9915602839183667e-07 -3.1057031717379039e-05 0.0000000000000000e+00  9.9842522871855422e-07 -3.1072764569746344e-05 0.0000000000000000e+00  1.4986797859987514e-06 -3.1078130096023035e-05 0.0000000000000000e+00  1.9992724710625418e-06 -3.1103655165488400e-05 0.0000000000000000e+00  2.5015024797032325e-06 -3.1121582067456621e-05 0.0000000000000000e+00  3.0042878427626917e-06 -3.1157395232971236e-05 0.0000000000000000e+00  3.5086692286550069e-06 -3.1190317276469662e-05 0.0000000000000000e+00  4.0137987852603650e-06 -3.1238132502462332e-05 0.0000000000000000e+00  4.5193945136917771e-06 -3.1289819620386546e-05 0.0000000000000000e+00  5.0258744918396379e-06 -3.1353273225346688e-05 0.0000000000000000e+00  5.5302031482804856e-06 -3.1429540402671885e-05 0.0000000000000000e+00  6.0354459058554167e-06 -3.1515223541103216e-05 0.0000000000000000e+00  6.5341332379740413e-06 -3.1624917059401617e-05 0.0000000000000000e+00  7.0335981069040582e-06 -3.1743745808030809e-05 0.0000000000000000e+00  7.5203316977826473e-06 -3.1899991394343959e-05 0.0000000000000000e+00  8.0074893865661528e-06 -3.2068807290770933e-05 0.0000000000000000e+00  8.4746416254652395e-06 -3.2290391646247365e-05 0.0000000000000000e+00  8.9416465303060424e-06 -3.2533447705301009e-05 0.0000000000000000e+00  9.3820250502165611e-06 -3.2846009618062325e-05 0.0000000000000000e+00  9.8215700969766333e-06 -3.3195691877985767e-05 0.0000000000000000e+00  1.0231595745551353e-05 -3.3632237785184425e-05 0.0000000000000000e+00  1.0640235961875085e-05 -3.4128393664493218e-05 0.0000000000000000e+00  1.1024115636024275e-05 -3.4728913255332222e-05 0.0000000000000000e+00  1.1406542299924089e-05 -3.5417347989375613e-05 0.0000000000000000e+00  1.1779525401016112e-05 -3.6228039346261729e-05 0.0000000000000000e+00  -1.4405920757047850e-05 -3.4245881471101807e-05 0.0000000000000000e+00  -1.3918204017435724e-05 -3.3471089296998376e-05 0.0000000000000000e+00  -1.3434465144937868e-05 -3.2825445615971327e-05 0.0000000000000000e+00  -1.2911740227653676e-05 -3.2305649976105832e-05 0.0000000000000000e+00  -1.2392874166117244e-05 -3.1866392029836351e-05 0.0000000000000000e+00  -1.1830704430785315e-05 -3.1528607085658322e-05 0.0000000000000000e+00  -1.1273035897814222e-05 -3.1232283332224729e-05 0.0000000000000000e+00  -1.0679177120654932e-05 -3.1012810829000222e-05 0.0000000000000000e+00  -1.0090599576324019e-05 -3.0810129558401820e-05 0.0000000000000000e+00  -9.4780372851231850e-06 -3.0661580598993799e-05 0.0000000000000000e+00  -8.8712133270073857e-06 -3.0518531752816240e-05 0.0000000000000000e+00  -8.2525331206383774e-06 -3.0410323431310266e-05 0.0000000000000000e+00  -7.6395761794977485e-06 -3.0305687809165067e-05 0.0000000000000000e+00  -7.0242025505134288e-06 -3.0220421973598969e-05 0.0000000000000000e+00  -6.4141195805002827e-06 -3.0142039665788585e-05 0.0000000000000000e+00  -5.8076826432711481e-06 -3.0071092311224552e-05 0.0000000000000000e+00  -5.2058177963892887e-06 -3.0012515537267671e-05 0.0000000000000000e+00  -4.6106017321849135e-06 -2.9952442331178915e-05 0.0000000000000000e+00  -4.0190836464508853e-06 -2.9910500044832201e-05 0.0000000000000000e+00  -3.4348381360447492e-06 -2.9860590804874142e-05 0.0000000000000000e+00  -2.8533570439128747e-06 -2.9833811625373125e-05 0.0000000000000000e+00  -2.2781031537880686e-06 -2.9794601645604810e-05 0.0000000000000000e+00  -1.7046760969526680e-06 -2.9782266260634923e-05 0.0000000000000000e+00  -1.1353686081008427e-06 -2.9754705857909106e-05 0.0000000000000000e+00  -5.6696734605225257e-07 -2.9756308947526627e-05 0.0000000000000000e+00  -7.9013722707611102e-19 -2.9741343477823893e-05 0.0000000000000000e+00  5.6696734605067794e-07 -2.9756308947526658e-05 0.0000000000000000e+00  1.1353686080992719e-06 -2.9754705857909157e-05 0.0000000000000000e+00  1.7046760969511154e-06 -2.9782266260635004e-05 0.0000000000000000e+00  2.2781031537865181e-06 -2.9794601645604884e-05 0.0000000000000000e+00  2.8533570439113446e-06 -2.9833811625373192e-05 0.0000000000000000e+00  3.4348381360432232e-06 -2.9860590804874213e-05 0.0000000000000000e+00  4.0190836464493785e-06 -2.9910500044832300e-05 0.0000000000000000e+00  4.6106017321834075e-06 -2.9952442331179050e-05 0.0000000000000000e+00  5.2058177963877996e-06 -3.0012515537267827e-05 0.0000000000000000e+00  5.8076826432696717e-06 -3.0071092311224732e-05 0.0000000000000000e+00  6.4141195804988258e-06 -3.0142039665788792e-05 0.0000000000000000e+00  7.0242025505119820e-06 -3.0220421973599189e-05 0.0000000000000000e+00  7.6395761794963255e-06 -3.0305687809165321e-05 0.0000000000000000e+00  8.2525331206369748e-06 -3.0410323431310568e-05 0.0000000000000000e+00  8.8712133270060186e-06 -3.0518531752816565e-05 0.0000000000000000e+00  9.4780372851218552e-06 -3.0661580598994138e-05 0.0000000000000000e+00  1.0090599576322734e-05 -3.0810129558402192e-05 0.0000000000000000e+00  1.0679177120653685e-05 -3.1012810829000642e-05 0.0000000000000000e+00  1.1273035897813022e-05 -3.1232283332225196e-05 0.0000000000000000e+00  1.1830704430784163e-05 -3.1528607085658816e-05 0.0000000000000000e+00  1.2392874166116156e-05 -3.1866392029836900e-05 0.0000000000000000e+00  1.2911740227652649e-05 -3.2305649976106408e-05 0.0000000000000000e+00  1.3434465144936915e-05 -3.2825445615971950e-05 0.0000000000000000e+00  1.3918204017434826e-05 -3.3471089296999061e-05 0.0000000000000000e+00  1.4405920757047027e-05 -3.4245881471102546e-05 0.0000000000000000e+00  -1.6865270521511339e-05 -3.1429057564219518e-05 0.0000000000000000e+00  -1.6304562920846359e-05 -3.0761554627491970e-05 0.0000000000000000e+00  -1.5677765539708664e-05 -3.0246607025087397e-05 0.0000000000000000e+00  -1.5061690537376449e-05 -2.9844629509252838e-05 0.0000000000000000e+00  -1.4373967456151093e-05 -2.9561147998607287e-05 0.0000000000000000e+00  -1.3698050890226052e-05 -2.9323727950769295e-05 0.0000000000000000e+00  -1.2967791185284292e-05 -2.9166905415769592e-05 0.0000000000000000e+00  -1.2250348876908495e-05 -2.9017816645299158e-05 0.0000000000000000e+00  -1.1502622018342426e-05 -2.8915834820652531e-05 0.0000000000000000e+00  -1.0767827691500254e-05 -2.8809030906833596e-05 0.0000000000000000e+00  -1.0023448636681757e-05 -2.8723775937960917e-05 0.0000000000000000e+00  -9.2911852796771001e-06 -2.8636534261300224e-05 0.0000000000000000e+00  -8.5634145642122393e-06 -2.8552921257363124e-05 0.0000000000000000e+00  -7.8463034375778199e-06 -2.8476740054075163e-05 0.0000000000000000e+00  -7.1414419464386346e-06 -2.8392261663498559e-05 0.0000000000000000e+00  -6.4454699487618809e-06 -2.8325921480607728e-05 0.0000000000000000e+00  -5.7646699808267355e-06 -2.8243629690525952e-05 0.0000000000000000e+00  -5.0909183572918243e-06 -2.8188949942768187e-05 0.0000000000000000e+00  -4.4319748672720980e-06 -2.8113549115037800e-05 0.0000000000000000e+00  -3.7783092536858243e-06 -2.8073129226382420e-05 0.0000000000000000e+00  -3.1370309430176571e-06 -2.8009107876157042e-05 0.0000000000000000e+00  -2.4993885878955323e-06 -2.7985262172734525e-05 0.0000000000000000e+00  -1.8705164681154901e-06 -2.7936158043387149e-05 0.0000000000000000e+00 