<?xml version="1.0"?>
<VTKFile type="UnstructuredGrid"  version="0.1"  >
<UnstructuredGrid>
<Piece  NumberOfPoints="561" NumberOfCells="1000">
<Points>
<DataArray  type="Float64"  NumberOfComponents="3"  format="ascii">0 0 0  0.0004 0 0  0.0008 0 0  0.0012 0 0  0.0016 0 0  0.002 0 0  0.0024 0 0  0.0028 0 0  0.0032 0 0  0.0036 0 0  0.004 0 0  0.0044 0 0  0.0048 0 0  0.0052 0 0  0.005600000000000001 0 0  0.006 0 0  0.0064 0 0  0.0068 0 0  0.0072 0 0  0.0076 0 0  0.008 0 0  0.008399999999999999 0 0  0.008800000000000001 0 0  0.0092 0 0  0.009599999999999999 0 0  0.01 0 0  0.0104 0 0  0.0108 0 0  0.0112 0 0  0.0116 0 0  0.012 0 0  0.0124 0 0  0.0128 0 0  0.0132 0 0  0.0136 0 0  0.014 0 0  0.0144 0 0  0.0148 0 0  0.0152 0 0  0.0156 0 0  0.016 0 0  0.0164 0 0  0.0168 0 0  0.0172 0 0  0.0176 0 0  0.018 0 0  0.0184 0 0  0.0188 0 0  0.0192 0 0  0.0196 0 0  0.02 0 0  0 0.0012 0  0.0004 0.0012 0  0.0008 0.0012 0  0.0012 0.0012 0  0.0016 0.0012 0  0.002 0.0012 0  0.0024 0.0012 0  0.0028 0.0012 0  0.0032 0.0012 0  0.0036 0.0012 0  0.004 0.0012 0  0.0044 0.0012 0  0.0048 0.0012 0  0.0052 0.0012 0  0.005600000000000001 0.0012 0  0.006 0.0012 0  0.0064 0.0012 0  0.0068 0.0012 0  0.0072 0.0012 0  0.0076 0.0012 0  0.008 0.0012 0  0.008399999999999999 0.0012 0  0.008800000000000001 0.0012 0  0.0092 0.0012 0  0.009599999999999999 0.0012 0  0.01 0.0012 0  0.0104 0.0012 0  0.0108 0.0012 0  0.0112 0.0012 0  0.0116 0.0012 0  0.012 0.0012 0  0.0124 0.0012 0  0.0128 0.0012 0  0.0132 0.0012 0  0.0136 0.0012 0  0.014 0.0012 0  0.0144 0.0012 0  0.0148 0.0012 0  0.0152 0.0012 0  0.0156 0.0012 0  0.016 0.0012 0  0.0164 0.0012 0  0.0168 0.0012 0  0.0172 0.0012 0  0.0176 0.0012 0  0.018 0.0012 0  0.0184 0.0012 0  0.0188 0.0012 0  0.0192 0.0012 0  0.0196 0.0012 0  0.02 0.0012 0  0 0.0024 0  0.0004 0.0024 0  0.0008 0.0024 0  0.0012 0.0024 0  0.0016 0.0024 0  0.002 0.0024 0  0.0024 0.0024 0  0.0028 0.0024 0  0.0032 0.0024 0  0.0036 0.0024 0  0.004 0.0024 0  0.0044 0.0024 0  0.0048 0.0024 0  0.0052 0.0024 0  0.005600000000000001 0.0024 0  0.006 0.0024 0  0.0064 0.0024 0  0.0068 0.0024 0  0.0072 0.0024 0  0.0076 0.0024 0  0.008 0.0024 0  0.008399999999999999 0.0024 0  0.008800000000000001 0.0024 0  0.0092 0.0024 0  0.009599999999999999 0.0024 0  0.01 0.0024 0  0.0104 0.0024 0  0.0108 0.0024 0  0.0112 0.0024 0  0.0116 0.0024 0  0.012 0.0024 0  0.0124 0.0024 0  0.0128 0.0024 0  0.0132 0.0024 0  0.0136 0.0024 0  0.014 0.0024 0  0.0144 0.0024 0  0.0148 0.0024 0  0.0152 0.0024 0  0.0156 0.0024 0  0.016 0.0024 0  0.0164 0.0024 0  0.0168 0.0024 0  0.0172 0.0024 0  0.0176 0.0024 0  0.018 0.0024 0  0.0184 0.0024 0  0.0188 0.0024 0  0.0192 0.0024 0  0.0196 0.0024 0  0.02 0.0024 0  0 0.0036 0  0.0004 0.0036 0  0.0008 0.0036 0  0.0012 0.0036 0  0.0016 0.0036 0  0.002 0.0036 0  0.0024 0.0036 0  0.0028 0.0036 0  0.0032 0.0036 0  0.0036 0.0036 0  0.004 0.0036 0  0.0044 0.0036 0  0.0048 0.0036 0  0.0052 0.0036 0  0.005600000000000001 0.0036 0  0.006 0.0036 0  0.0064 0.0036 0  0.0068 0.0036 0  0.0072 0.0036 0  0.0076 0.0036 0  0.008 0.0036 0  0.008399999999999999 0.0036 0  0.008800000000000001 0.0036 0  0.0092 0.0036 0  0.009599999999999999 0.0036 0  0.01 0.0036 0  0.0104 0.0036 0  0.0108 0.0036 0  0.0112 0.0036 0  0.0116 0.0036 0  0.012 0.0036 0  0.0124 0.0036 0  0.0128 0.0036 0  0.0132 0.0036 0  0.0136 0.0036 0  0.014 0.0036 0  0.0144 0.0036 0  0.0148 0.0036 0  0.0152 0.0036 0  0.0156 0.0036 0  0.016 0.0036 0  0.0164 0.0036 0  0.0168 0.0036 0  0.0172 0.0036 0  0.0176 0.0036 0  0.018 0.0036 0  0.0184 0.0036 0  0.0188 0.0036 0  0.0192 0.0036 0  0.0196 0.0036 0  0.02 0.0036 0  0 0.0048 0  0.0004 0.0048 0  0.0008 0.0048 0  0.0012 0.0048 0  0.0016 0.0048 0  0.002 0.0048 0  0.0024 0.0048 0  0.0028 0.0048 0  0.0032 0.0048 0  0.0036 0.0048 0  0.004 0.0048 0  0.0044 0.0048 0  0.0048 0.0048 0  0.0052 0.0048 0  0.005600000000000001 0.0048 0  0.006 0.0048 0  0.0064 0.0048 0  0.0068 0.0048 0  0.0072 0.0048 0  0.0076 0.0048 0  0.008 0.0048 0  0.008399999999999999 0.0048 0  0.008800000000000001 0.0048 0  0.0092 0.0048 0  0.009599999999999999 0.0048 0  0.01 0.0048 0  0.0104 0.0048 0  0.0108 0.0048 0  0.0112 0.0048 0  0.0116 0.0048 0  0.012 0.0048 0  0.0124 0.0048 0  0.0128 0.0048 0  0.0132 0.0048 0  0.0136 0.0048 0  0.014 0.0048 0  0.0144 0.0048 0  0.0148 0.0048 0  0.0152 0.0048 0  0.0156 0.0048 0  0.016 0.0048 0  0.0164 0.0048 0  0.0168 0.0048 0  0.0172 0.0048 0  0.0176 0.0048 0  0.018 0.0048 0  0.0184 0.0048 0  0.0188 0.0048 0  0.0192 0.0048 0  0.0196 0.0048 0  0.02 0.0048 0  0 0.006 0  0.0004 0.006 0  0.0008 0.006 0  0.0012 0.006 0  0.0016 0.006 0  0.002 0.006 0  0.0024 0.006 0  0.0028 0.006 0  0.0032 0.006 0  0.0036 0.006 0  0.004 0.006 0  0.0044 0.006 0  0.0048 0.006 0  0.0052 0.006 0  0.005600000000000001 0.006 0  0.006 0.006 0  0.0064 0.006 0  0.0068 0.006 0  0.0072 0.006 0  0.0076 0.006 0  0.008 0.006 0  0.008399999999999999 0.006 0  0.008800000000000001 0.006 0  0.0092 0.006 0  0.009599999999999999 0.006 0  0.01 0.006 0  0.0104 0.006 0  0.0108 0.006 0  0.0112 0.006 0  0.0116 0.006 0  0.012 0.006 0  0.0124 0.006 0  0.0128 0.006 0  0.0132 0.006 0  0.0136 0.006 0  0.014 0.006 0  0.0144 0.006 0  0.0148 0.006 0  0.0152 0.006 0  0.0156 0.006 0  0.016 0.006 0  0.0164 0.006 0  0.0168 0.006 0  0.0172 0.006 0  0.0176 0.006 0  0.018 0.006 0  0.0184 0.006 0  0.0188 0.006 0  0.0192 0.006 0  0.0196 0.006 0  0.02 0.006 0  0 0.007200000000000001 0  0.0004 0.007200000000000001 0  0.0008 0.007200000000000001 0  0.0012 0.007200000000000001 0  0.0016 0.007200000000000001 0  0.002 0.007200000000000001 0  0.0024 0.007200000000000001 0  0.0028 0.007200000000000001 0  0.0032 0.007200000000000001 0  0.0036 0.007200000000000001 0  0.004 0.007200000000000001 0  0.0044 0.007200000000000001 0  0.0048 0.007200000000000001 0  0.0052 0.007200000000000001 0  0.005600000000000001 0.007200000000000001 0  0.006 0.007200000000000001 0  0.0064 0.007200000000000001 0  0.0068 0.007200000000000001 0  0.0072 0.007200000000000001 0  0.0076 0.007200000000000001 0  0.008 0.007200000000000001 0  0.008399999999999999 0.007200000000000001 0  0.008800000000000001 0.007200000000000001 0  0.0092 0.007200000000000001 0  0.009599999999999999 0.007200000000000001 0  0.01 0.007200000000000001 0  0.0104 0.007200000000000001 0  0.0108 0.007200000000000001 0  0.0112 0.007200000000000001 0  0.0116 0.007200000000000001 0  0.012 0.007200000000000001 0  0.0124 0.007200000000000001 0  0.0128 0.007200000000000001 0  0.0132 0.007200000000000001 0  0.0136 0.007200000000000001 0  0.014 0.007200000000000001 0  0.0144 0.007200000000000001 0  0.0148 0.007200000000000001 0  0.0152 0.007200000000000001 0  0.0156 0.007200000000000001 0  0.016 0.007200000000000001 0  0.0164 0.007200000000000001 0  0.0168 0.007200000000000001 0  0.0172 0.007200000000000001 0  0.0176 0.007200000000000001 0  0.018 0.007200000000000001 0  0.0184 0.007200000000000001 0  0.0188 0.007200000000000001 0  0.0192 0.007200000000000001 0  0.0196 0.007200000000000001 0  0.02 0.007200000000000001 0  0 0.008400000000000001 0  0.0004 0.008400000000000001 0  0.0008 0.008400000000000001 0  0.0012 0.008400000000000001 0  0.0016 0.008400000000000001 0  0.002 0.008400000000000001 0  0.0024 0.008400000000000001 0  0.0028 0.008400000000000001 0  0.0032 0.008400000000000001 0  0.0036 0.008400000000000001 0  0.004 0.008400000000000001 0  0.0044 0.008400000000000001 0  0.0048 0.008400000000000001 0  0.0052 0.008400000000000001 0  0.005600000000000001 0.008400000000000001 0  0.006 0.008400000000000001 0  0.0064 0.008400000000000001 0  0.0068 0.008400000000000001 0  0.0072 0.008400000000000001 0  0.0076 0.008400000000000001 0  0.008 0.008400000000000001 0  0.008399999999999999 0.008400000000000001 0  0.008800000000000001 0.008400000000000001 0  0.0092 0.008400000000000001 0  0.009599999999999999 0.008400000000000001 0  0.01 0.008400000000000001 0  0.0104 0.008400000000000001 0  0.0108 0.008400000000000001 0  0.0112 0.008400000000000001 0  0.0116 0.008400000000000001 0  0.012 0.008400000000000001 0  0.0124 0.008400000000000001 0  0.0128 0.008400000000000001 0  0.0132 0.008400000000000001 0  0.0136 0.008400000000000001 0  0.014 0.008400000000000001 0  0.0144 0.008400000000000001 0  0.0148 0.008400000000000001 0  0.0152 0.008400000000000001 0  0.0156 0.008400000000000001 0  0.016 0.008400000000000001 0  0.0164 0.008400000000000001 0  0.0168 0.008400000000000001 0  0.0172 0.008400000000000001 0  0.0176 0.008400000000000001 0  0.018 0.008400000000000001 0  0.0184 0.008400000000000001 0  0.0188 0.008400000000000001 0  0.0192 0.008400000000000001 0  0.0196 0.008400000000000001 0  0.02 0.008400000000000001 0  0 0.009600000000000001 0  0.0004 0.009600000000000001 0  0.0008 0.009600000000000001 0  0.0012 0.009600000000000001 0  0.0016 0.009600000000000001 0  0.002 0.009600000000000001 0  0.0024 0.009600000000000001 0  0.0028 0.009600000000000001 0  0.0032 0.009600000000000001 0  0.0036 0.009600000000000001 0  0.004 0.009600000000000001 0  0.0044 0.009600000000000001 0  0.0048 0.009600000000000001 0  0.0052 0.009600000000000001 0  0.005600000000000001 0.009600000000000001 0  0.006 0.009600000000000001 0  0.0064 0.009600000000000001 0  0.0068 0.009600000000000001 0  0.0072 0.009600000000000001 0  0.0076 0.009600000000000001 0  0.008 0.009600000000000001 0  0.008399999999999999 0.009600000000000001 0  0.008800000000000001 0.009600000000000001 0  0.0092 0.009600000000000001 0  0.009599999999999999 0.009600000000000001 0  0.01 0.009600000000000001 0  0.0104 0.009600000000000001 0  0.0108 0.009600000000000001 0  0.0112 0.009600000000000001 0  0.0116 0.009600000000000001 0  0.012 0.009600000000000001 0  0.0124 0.009600000000000001 0  0.0128 0.009600000000000001 0  0.0132 0.009600000000000001 0  0.0136 0.009600000000000001 0  0.014 0.009600000000000001 0  0.0144 0.009600000000000001 0  0.0148 0.009600000000000001 0  0.0152 0.009600000000000001 0  0.0156 0.009600000000000001 0  0.016 0.009600000000000001 0  0.0164 0.009600000000000001 0  0.0168 0.009600000000000001 0  0.0172 0.009600000000000001 0  0.017
[...]
<PointData  Scalars="VMS [Pa]"> 
<DataArray  type="Float64"  Name="VMS [Pa]"  format="ascii">3.2991911770613160e+07  9.5575884629898071e+06  2.8308984094708957e+07  8.9199586495017093e+06  3.4878628621377252e+07  1.0891161859687141e+06  4.8794017782440946e+07  5.8539471367922341e+06  6.6120361191341899e+07  2.1690287336720228e+07  8.4697550636319607e+07  4.2680359599037647e+07  1.0297463610858585e+08  6.4822040649768092e+07  1.1969564705846252e+08  8.5541770244732916e+07  1.3403140263861823e+08  1.0331942891827360e+08  1.4556247915396187e+08  1.1739449336716734e+08  1.5416447907842508e+08  1.2747633791460066e+08  1.5985883416327578e+08  1.3351041579128952e+08  1.6269467748054016e+08  1.3551686301319247e+08  1.6269467748054153e+08  1.3351041579129134e+08  1.5985883416327682e+08  1.2747633791459590e+08  1.5416447907842556e+08  1.1739449336716805e+08  1.4556247915396219e+08  1.0331942891827090e+08  1.3403140263861564e+08  8.5541770244726390e+07  1.1969564705845863e+08  6.4822040649758711e+07  1.0297463610858420e+08  4.2680359599030405e+07  8.4697550636317492e+07  2.1690287336710893e+07  6.6120361191342078e+07  5.8539471367820231e+06  4.8794017782438472e+07  1.0891161859550155e+06  3.4878628621375561e+07  8.9199586495024506e+06  2.8308984094716907e+07  9.5575884629860837e+06  3.2991911770626541e+07  4.2158744864012912e+07  2.5781959958128829e+07  4.1627168500680506e+07  3.4652529331284188e+07  4.5827704840562500e+07  4.7357891306795061e+07  5.6535613266939342e+07  6.0990396847137257e+07  6.8310744765471444e+07  7.4144671742454082e+07  7.8631888329129115e+07  8.5955779680267707e+07  8.7130842323053584e+07  9.6138741159077585e+07  9.4149751574817196e+07  1.0471409692926955e+08  1.0001330963835235e+08  1.1173571877488200e+08  1.0483003657256493e+08  1.1719232403963755e+08  1.0854491301544459e+08  1.2105769808679093e+08  1.1105808376341087e+08  1.2334177023393703e+08  1.1231293858373833e+08  1.2409371247254257e+08  1.1231293858373956e+08  1.2334177023393849e+08  1.1105808376341265e+08  1.2105769808679067e+08  1.0854491301544037e+08  1.1719232403963819e+08  1.0483003657256433e+08  1.1173571877488348e+08  1.0001330963835295e+08  1.0471409692926741e+08  9.4149751574811399e+07  9.6138741159075752e+07  8.7130842323047236e+07  8.5955779680261254e+07  7.8631888329123870e+07  7.4144671742451146e+07  6.8310744765465260e+07  6.0990396847136788e+07  5.6535613266937755e+07  4.7357891306788549e+07  4.5827704840563394e+07  3.4652529331281595e+07  4.1627168500678524e+07  2.5781959958129562e+07  4.2158744864014670e+07  2.9484133419937510e+07  4.7749981997445099e+07  4.8145968561137751e+07  6.0512556156905070e+07  6.8107196614861563e+07  7.4779454490815282e+07  8.2742758606015578e+07  8.6466739253801525e+07  9.2306228414395034e+07  9.4177118881305292e+07  9.6912166771584049e+07  9.7591576259843200e+07  9.7465935319701880e+07  9.7308756421389699e+07  9.5272637380761296e+07  9.4457620460389853e+07  9.1704782317665026e+07  9.0315369044897258e+07  8.7994870882782280e+07  8.6061624956606880e+07  8.5015360059357479e+07  8.2535945012816548e+07  8.3150049487157762e+07  8.0248012135460913e+07  8.2340420583694085e+07  7.9453984709732339e+07  8.2340420583695307e+07  8.0248012135462999e+07  8.3150049487159550e+07  8.2535945012816519e+07  8.5015360059355691e+07  8.6061624956601411e+07  8.7994870882780582e+07  9.0315369044899568e+07  9.1704782317664951e+07  9.4457620460386023e+07  9.5272637380754530e+07  9.7308756421383962e+07  9.7465935319690272e+07  9.7591576259831697e+07  9.6912166771577060e+07  9.4177118881298602e+07  9.2306228414392650e+07  8.6466739253798932e+07  8.2742758606008306e+07  7.4779454490812138e+07  6.8107196614860892e+07  6.0512556156896658e+07  4.8145968561138622e+07  4.7749981997450709e+07  2.9484133419939756e+07  6.5331034897096075e+07  6.6132116257412970e+07  7.6788642263205290e+07  9.1134388336872950e+07  9.0912926901000813e+07  1.0618049167997265e+08  1.0114583077673866e+08  1.1292955567962518e+08  1.0654990050713551e+08  1.1261094532526618e+08  1.0650740293278848e+08  1.0672496820031132e+08  1.0174817215824503e+08  9.7452005493464991e+07  9.3923254007074520e+07  8.6888324488611504e+07  8.4646406219740376e+07  7.6412836804215759e+07  7.5029977533524066e+07  6.6648520382238932e+07  6.5918254041356787e+07  5.8344761651464581e+07  5.8278817635443032e+07  5.2582469854109623e+07  5.3604878460940890e+07  5.0509925975278601e+07  5.3604878460942052e+07  5.2582469854112901e+07  5.8278817635447130e+07  5.8344761651466064e+07  6.5918254041351490e+07  6.6648520382234260e+07  7.5029977533514395e+07  7.6412836804209068e+07  8.4646406219740897e+07  8.6888324488605827e+07  9.3923254007064432e+07  9.7452005493459180e+07  1.0174817215823026e+08  1.0672496820029816e+08  1.0650740293278283e+08  1.1261094532525755e+08  1.0654990050712787e+08  1.1292955567961700e+08  1.0114583077673222e+08  1.0618049167996559e+08  9.0912926900990456e+07  9.1134388336870328e+07  7.6788642263204396e+07  6.6132116257411376e+07  6.5331034897102267e+07  1.0815182120952290e+08  1.1151687804486758e+08  1.1697173471168877e+08  1.0941433471303697e+08  1.2774779280173662e+08  1.1310125813226692e+08  1.2887814038925967e+08  1.1355691428040962e+08  1.2119482670973291e+08  1.0938652095681146e+08  1.0950154757754974e+08  1.0135306158830982e+08  9.5655692906492367e+07  9.0159498002666846e+07  7.9397778292727068e+07  7.6916115566058323e+07  6.1352554419975638e+07  6.3183533329362161e+07  4.4112332843599573e+07  5.1769808751577817e+07  3.0381460089738052e+07  4.3828449236073077e+07  2.1418783137581993e+07  3.9639908454714827e+07  1.7182146100505795e+07  3.8434675514911629e+07  1.7182146100505773e+07  3.9639908454713188e+07  2.1418783137579542e+07  4.3828449236073434e+07  3.0381460089732938e+07  5.1769808751568928e+07  4.4112332843585610e+07  6.3183533329347543e+07  6.1352554419967234e+07  7.6916115566048503e+07  7.9397778292716131e+07  9.0159498002658620e+07  9.5655692906474948e+07  1.0135306158829542e+08  1.0950154757754271e+08  1.0938652095680325e+08  1.2119482670972000e+08  1.1355691428039083e+08  1.2887814038924895e+08  1.1310125813225609e+08  1.2774779280172466e+08  1.0941433471303056e+08  1.1697173471168041e+08  1.1151687804486540e+08  1.0815182120952375e+08  2.0872740901240528e+08  1.7045205594055063e+08  1.4744811981279945e+08  1.5806902160517570e+08  1.2535981465135948e+08  1.4340164289646614e+08  1.1605929115407744e+08  1.2624463297154634e+08  1.0735605373429970e+08  1.0353378523722732e+08  9.1200890694705173e+07  7.5278963474588528e+07  7.1855702525205761e+07  5.0141726409946993e+07  5.7290316778999001e+07  3.5976752060799830e+07  5.0364109350101136e+07  3.4201496692809112e+07  4.8782911290707313e+07  3.6873547260458983e+07  5.0051275362005308e+07  4.0663564882682383e+07  5.2319676830224149e+07  4.3762733767193079e+07  5.3998432660100110e+07  4.4938503264645532e+07  5.3998432660100400e+07  4.3762733767190248e+07  5.2319676830219626e+07  4.0663564882680140e+07  5.0051275362002023e+07  3.6873547260454349e+07  4.8782911290706649e+07  3.4201496692803495e+07  5.0364109350095481e+07  3.5976752060788535e+07  5.7290316778986245e+07  5.0141726409934148e+07  7.1855702525197983e+07  7.5278963474573508e+07  9.1200890694690913e+07  1.0353378523721868e+08  1.0735605373429486e+08  1.2624463297153512e+08  1.1605929115406363e+08  1.4340164289645243e+08  1.2535981465134640e+08  1.5806902160516831e+08  1.4744811981279290e+08  1.7045205594054759e+08  2.0872740901240617e+08  2.5217734825772202e+08  2.2861842811157888e+08  2.1134794176782164e+08  1.5124595381392860e+08  1.6274288135491019e+08  1.1744271278568244e+08  1.0448618967576806e+08  8.2266453279109374e+07  5.1303764111630835e+07  5.5939972200776689e+07  3.3412645355601110e+07  4.8230134550966352e+07  4.1701522602382772e+07  4.9889508332736216e+07  5.5270064173926204e+07  6.0366573710778467e+07  7.0408728026960596e+07  7.4870379863611698e+07  8.4148654220710814e+07  8.8105758798919380e+07  9.5063043027734920e+07  9.7963297818733796e+07  1.0239335381642638e+08  1.0392158615954037e+08  1.0601394905418009e+08  1.0590876803066626e+08  1.0601394905418041e+08  1.0392158615953945e+08  1.0239335381642871e+08  9.7963297818736106e+07  9.5063043027737260e+07  8.8105758798921764e+07  8.4148654220711201e+07  7.4870379863611728e+07  7.0408728026958436e+07  6.0366573710771590e+07  5.5270064173920557e+07  4.9889508332728356e+07  4.1701522602376565e+07  4.8230134550960846e+07  3.3412645355592005e+07  5.5939972200765379e+07  5.1303764111618795e+07  8.2266453279097542e+07  1.0448618967575656e+08  1.1744271278566793e+08  1.6274288135489839e+08  1.5124595381392074e+08  2.1134794176781440e+08  2.2861842811157128e+08  2.5217734825771734e+08  4.7438933505044389e+08  3.6098122252480638e+08  2.1937324174125168e+08  1.9195919638658172e+08  1.0753748653179830e+08  5.6829357061111614e+07  6.4799262222242333e+07  4.7682702229737580e+07  5.3704086305841252e+07  7.5887109409906626e+07  7.1791012273852959e+07  1.0673242301485904e+08  1.0147113606039576e+08  1.3128166443721560e+08  1.2697763809282590e+08  1.4938145881950015e+08  1.4682400690716270e+08  1.6233219684451368e+08  1.6165407130710793e+08  1.7159250891797790e+08  1.7210497894657513e+08  1.7792274694697815e+08  1.7876944141553238e+08  1.8165064638215467e+08  1.8201850943471932e+08  1.8288566325584367e+08  1.8201850943471840e+08  1.8165064638215509e+08  1.7876944141553405e+08  1.7792274694697902e+08  1.7210497894657633e+08  1.7159250891797811e+08  1.6165407130710834e+08  1.6233219684451446e+08  1.4682400690715981e+08  1.4938145881949615e+08  1.2697763809282173e+08  1.3128166443721657e+08  1.0147113606039828e+08  1.0673242301486149e+08  7.1791012273857191e+07  7.5887109409908816e+07  5.3704086305839926e+07  4.7682702229735941e+07  6.4799262222243518e+07  5.6829357061104327e+07  1.0753748653179486e+08  1.9195919638656473e+08  2.1937324174123970e+08  3.6098122252478909e+08  4.7438933505044383e+08  5.3168892482237840e+08  2.6752280328159010e+08  1.8412728018373546e+08  9.7002815627416998e+07  1.0583454827935022e+08  6.7567895666392297e+07  1.7012764317313269e+08  1.3732314186903635e+08  2.2439942863909930e+08  1.9142785797858441e+08  2.4876270343579450e+08  2.2488846490783319e+08  2.5812798351076758e+08  2.4550034333813500e+08  2.6248033126412410e+08  2.5794812451741543e+08  2.6512877522411451e+08  2.6543691474965131e+08  2.6701878969391429e+08  2.6986999800828439e+08  2.6838079419960684e+08  2.7240087546690208e+08  2.6926727284529340e+08  2.7369371838583493e+08  2.6970251069059795e+08  2.7408975247347891e+08  2.6970251069059688e+08  2.7369371838583392e+08  2.6926727284529221e+08  2.7240087546690053e+08  2.6838079419960546e+08  2.6986999800828344e+08  2.6701878969391203e+08  2.6543691474965096e+08  2.6512877522411159e+08  2.5794812451741442e+08  2.6248033126411757e+08  2.4550034333812851e+08  2.5812798351076478e+08  2.2488846490782937e+08  2.4876270343579444e+08  1.9142785797858498e+08  2.2439942863910055e+08  1.3732314186903712e+08  1.7012764317313287e+08  6.7567895666387424e+07  1.0583454827934501e+08  9.7002815627413422e+07  1.8412728018373102e+08  2.6752280328158146e+08  5.3168892482235211e+08  9.9026276538479066e+08  8.5784723709750926e+08  3.0453053160276574e+08  6.5876271557862628e+08  3.7732760904904974e+08  5.9782616745007515e+08  4.3813265853873456e+08  5.3733355051006043e+08  4.5297963689429742e+08  4.8609293394174194e+08  4.4687887914584398e+08  4.4815863538554627e+08  4.3199489308567894e+08  4.2066939390402120e+08  4.1499842187404788e+08  4.0081051972890019e+08  3.9942396403094733e+08  3.8661874771134955e+08  3.8675117683303350e+08  3.7675373601865315e+08  3.7738753406343585e+08  3.7029678540281606e+08  3.7128946570471293e+08  3.6664843606805116e+08  3.6829679872010380e+08  3.6546902950288486e+08  3.6829679872010368e+08  3.6664843606804925e+08  3.7128946570470953e+08  3.7029678540281343e+08  3.7738753406343257e+08  3.7675373601864719e+08  3.8675117683302438e+08  3.8661874771134114e+08  3.9942396403093821e+08  4.0081051972888929e+08  4.1499842187403482e+08  4.2066939390400815e+08  4.3199489308566725e+08  4.4815863538553220e+08  4.4687887914583451e+08  4.8609293394172412e+08  4.5297963689428347e+08  5.3733355051003826e+08  4.3813265853871280e+08  5.9782616745004380e+08  3.7732760904902327e+08  6.5876271557858658e+08  3.0453053160273880e+08  8.5784723709745884e+08  9.9026276538474751e+08  1.5210326444578898e+09  2.3725757842710924e+09  1.3587633785112746e+09  1.8644773806698613e+09  1.0689318662069870e+09  1.4329701011175814e+09  8.4504101176076078e+08  1.1075615697943332e+09  7.0223408556726527e+08  8.7370052461059642e+08  6.1020483251668406e+08  7.1125158531318903e+08  5.4892077366258895e+08  6.0084074704022229e+08  5.0714292650296474e+08  5.2668725939545041e+08  4.7829113243546420e+08  4.7738826404979879e+08  4.5842793604354507e+08  4.4522623367548180e+08  4.4515347513281751e+08  4.2521068456840545e+08  4.3700170278410625e+08  4.1428859762274098e+08  4.3312217010591602e+08  4.1081996405180150e+08  4.3312217010591602e+08  4.1428859762274092e+08  4.3700170278410465e+08  4.2521068456840253e+08  4.4515347513281316e+08  4.4522623367547327e+08  4.5842793604353583e+08  4.7738826404978770e+08  4.7829113243545115e+08  5.2668725939543509e+08  5.0714292650294846e+08  6.0084074704020131e+08  5.4892077366256762e+08  7.1125158531315911e+08  6.1020483251665854e+08  8.7370052461055338e+08  7.0223408556723011e+08  1.1075615697942777e+09  8.4504101176071060e+08  1.4329701011174963e+09  1.0689318662069120e+09  1.8644773806697307e+09  1.3587633785111735e+09  2.3725757842709141e+09  1.5210326444577780e+09  </DataArray> 
</PointData> 
</Piece>
</UnstructuredGrid>
</VTKFile>