<?xml version="1.0"?>
<VTKFile type="UnstructuredGrid"  version="0.1"  >
<UnstructuredGrid>
<Piece  NumberOfPoints="2601" NumberOfCells="5000">
<Points>
<DataArray  type="Float64"  NumberOfComponents="3"  format="ascii">0 0 0  0.0004 0 0  0.0008 0 0  0.0012 0 0  0.0016 0 0  0.002 0 0  0.0024 0 0  0.0028 0 0  0.0032 0 0  0.0036 0 0  0.004 0 0  0.0044 0 0  0.0048 0 0  0.0052 0 0  0.005600000000000001 0 0  0.006 0 0  0.0064 0 0  0.0068 0 0  0.0072 0 0  0.0076 0 0  0.008 0 0  0.008399999999999999 0 0  0.008800000000000001 0 0  0.0092 0 0  0.009599999999999999 0 0  0.01 0 0  0.0104 0 0  0.0108 0 0  0.0112 0 0  0.0116 0 0  0.012 0 0  0.0124 0 0  0.0128 0 0  0.0132 0 0  0.0136 0 0  0.014 0 0  0.0144 0 0  0.0148 0 0  0.0152 0 0  0.0156 0 0  0.016 0 0  0.0164 0 0  0.0168 0 0  0.0172 0 0  0.0176 0 0  0.018 0 0  0.0184 0 0  0.0188 0 0  0.0192 0 0  0.0196 0 0  0.02 0 0  0 0.00024 0  0.0004 0.00024 0  0.0008 0.00024 0  0.0012 0.00024 0  0.0016 0.00024 0  0.002 0.00024 0  0.0024 0.00024 0  0.0028 0.00024 0  0.0032 0.00024 0  0.0036 0.00024 0  0.004 0.00024 0  0.0044 0.00024 0  0.0048 0.00024 0  0.0052 0.00024 0  0.005600000000000001 0.00024 0  0.006 0.00024 0  0.0064 0.00024 0  0.0068 0.00024 0  0.0072 0.00024 0  0.0076 0.00024 0  0.008 0.00024 0  0.008399999999999999 0.00024 0  0.008800000000000001 0.00024 0  0.0092 0.00024 0  0.009599999999999999 0.00024 0  0.01 0.00024 0  0.0104 0.00024 0  0.0108 0.00024 0  0.0112 0.00024 0  0.0116 0.00024 0  0.012 0.00024 0  0.0124 0.00024 0  0.0128 0.00024 0  0.0132 0.00024 0  0.0136 0.00024 0  0.014 0.00024 0  0.0144 0.00024 0  0.0148 0.00024 0  0.0152 0.00024 0  0.0156 0.00024 0  0.016 0.00024 0  0.0164 0.00024 0  0.0168 0.00024 0  0.0172 0.00024 0  0.0176 0.00024 0  0.018 0.00024 0  0.0184 0.00024 0  0.0188 0.00024 0  0.0192 0.00024 0  0.0196 0.00024 0  0.02 0.00024 0  0 0.00048 0  0.0004 0.00048 0  0.0008 0.00048 0  0.0012 0.00048 0  0.0016 0.00048 0  0.002 0.00048 0  0.0024 0.00048 0  0.0028 0.00048 0  0.0032 0.00048 0  0.0036 0.00048 0  0.004 0.00048 0  0.0044 0.00048 0  0.0048 0.00048 0  0.0052 0.00048 0  0.005600000000000001 0.00048 0  0.006 0.00048 0  0.0064 0.00048 0  0.0068 0.00048 0  0.0072 0.00048 0  0.0076 0.00048 0  0.008 0.00048 0  0.008399999999999999 0.00048 0  0.008800000000000001 0.00048 0  0.0092 0.00048 0  0.009599999999999999 0.00048 0  0.01 0.00048 0  0.0104 0.00048 0  0.0108 0.00048 0  0.0112 0.00048 0  0.0116 0.00048 0  0.012 0.00048 0  0.0124 0.00048 0  0.0128 0.00048 0  0.0132 0.00048 0  0.0136 0.00048 0  0.014 0.00048 0  0.0144 0.00048 0  0.0148 0.00048 0  0.0152 0.00048 0  0.0156 0.00048 0  0.016 0.00048 0  0.0164 0.00048 0  0.0168 0.00048 0  0.0172 0.00048 0  0.0176 0.00048 0  0.018 0.00048 0  0.0184 0.00048 0  0.0188 0.00048 0  0.0192 0.00048 0  0.0196 0.00048 0  0.02 0.00048 0  0 0.00072 0  0.0004 0.00072 0  0.0008 0.00072 0  0.0012 0.00072 0  0.0016 0.00072 0  0.002 0.00072 0  0.0024 0.00072 0  0.0028 0.00072 0  0.0032 0.00072 0  0.0036 0.00072 0  0.004 0.00072 0  0.0044 0.00072 0  0.0048 0.00072 0  0.0052 0.00072 0  0.005600000000000001 0.00072 0  0.006 0.00072 0  0.0064 0.00072 0  0.0068 0.00072 0  0.0072 0.00072 0  0.0076 0.00072 0  0.008 0.00072 0  0.008399999999999999 0.00072 0  0.008800000000000001 0.00072 0  0.0092 0.00072 0  0.009599999999999999 0.00072 0  0.01 0.00072 0  0.0104 0.00072 0  0.0108 0.00072 0  0.0112 0.00072 0  0.0116 0.00072 0  0.012 0.00072 0  0.0124 0.00072 0  0.0128 0.00072 0  0.0132 0.00072 0  0.0136 0.00072 0  0.014 0.00072 0  0.0144 0.00072 0  0.0148 0.00072 0  0.0152 0.00072 0  0.0156 0.00072 0  0.016 0.00072 0  0.0164 0.00072 0  0.0168 0.00072 0  0.0172 0.00072 0  0.0176 0.00072 0  0.018 0.00072 0  0.0184 0.00072 0  0.0188 0.00072 0  0.0192 0.00072 0  0.0196 0.00072 0  0.02 0.00072 0  0 0.00096 0  0.0004 0.00096 0  0.0008 0.00096 0  0.0012 0.00096 0  0.0016 0.00096 0  0.002 0.00096 0  0.0024 0.00096 0  0.0028 0.00096 0  0.0032 0.00096 0  0.0036 0.00096 0  0.004 0.00096 0  0.0044 0.00096 0  0.0048 0.00096 0  0.0052 0.00096 0  0.005600000000000001 0.00096 0  0.006 0.00096 0  0.0064 0.00096 0  0.0068 0.00096 0  0.0072 0.00096 0  0.0076 0.00096 0  0.008 0.00096 0  0.008399999999999999 0.00096 0  0.008800000000000001 0.00096 0  0.0092 0.00096 0  0.009599999999999999 0.00096 0  0.01 0.00096 0  0.0104 0.00096 0  0.0108 0.00096 0  0.0112 0.00096 0  0.0116 0.00096 0  0.012 0.00096 0  0.0124 0.00096 0  0.0128 0.00096 0  0.0132 0.00096 0  0.0136 0.00096 0  0.014 0.00096 0  0.0144 0.00096 0  0.0148 0.00096 0  0.0152 0.00096 0  0.0156 0.00096 0  0.016 0.00096 0  0.0164 0.00096 0  0.0168 0.00096 0  0.0172 0.00096 0  0.0176 0.00096 0  0.018 0.00096 0  0.0184 0.00096 0  0.0188 0.00096 0  0.0192 0.00096 0  0.0196 0.00096 0  0.02 0.00096 0  0 0.0012 0  0.0004 0.0012 0  0.0008 0.0012 0  0.0012 0.0012 0  0.0016 0.0012 0  0.002 0.0012 0  0.0024 0.0012 0  0.0028 0.0012 0  0.0032 0.0012 0  0.0036 0.0012 0  0.004 0.0012 0  0.0044 0.0012 0  0.0048 0.0012 0  0.0052 0.0012 0  0.005600000000000001 0.0012 0  0.006 0.0012 0  0.0064 0.0012 0  0.0068 0.0012 0  0.0072 0.0012 0  0.0076 0.0012 0  0.008 0.0012 0  0.008399999999999999 0.0012 0  0.008800000000000001 0.0012 0  0.0092 0.0012 0  0.009599999999999999 0.0012 0  0.01 0.0012 0  0.0104 0.0012 0  0.0108 0.0012 0  0.0112 0.0012 0  0.0116 0.0012 0  0.012 0.0012 0  0.0124 0.0012 0  0.0128 0.0012 0  0.0132 0.0012 0  0.0136 0.0012 0  0.014 0.0012 0  0.0144 0.0012 0  0.0148 0.0012 0  0.0152 0.0012 0  0.0156 0.0012 0  0.016 0.0012 0  0.0164 0.0012 0  0.0168 0.0012 0  0.0172 0.0012 0  0.0176 0.0012 0  0.018 0.0012 0  0.0184 0.0012 0  0.0188 0.0012 0  0.0192 0.0012 0  0.0196 0.0012 0  0.02 0.0012 0  0 0.00144 0  0.0004 0.00144 0  0.0008 0.00144 0  0.0012 0.00144 0  0.0016 0.00144 0  0.002 0.00144 0  0.0024 0.00144 0  0.0028 0.00144 0  0.0032 0.00144 0  0.0036 0.00144 0  0.004 0.00144 0  0.0044 0.00144 0  0.0048 0.00144 0  0.0052 0.00144 0  0.005600000000000001 0.00144 0  0.006 0.00144 0  0.0064 0.00144 0  0.0068 0.00144 0  0.0072 0.00144 0  0.0076 0.00144 0  0.008 0.00144 0  0.008399999999999999 0.00144 0  0.008800000000000001 0.00144 0  0.0092 0.00144 0  0.009599999999999999 0.00144 0  0.01 0.00144 0  0.0104 0.00144 0  0.0108 0.00144 0  0.0112 0.00144 0  0.0116 0.00144 0  0.012 0.00144 0  0.0124 0.00144 0  0.0128 0.00144 0  0.0132 0.00144 0  0.0136 0.00144 0  0.014 0.00144 0  0.0144 0.00144 0  0.0148 0.00144 0  0.0152 0.00144 0  0.0156 0.00144 0  0.016 0.00144 0  0.0164 0.00144 0  0.0168 0.00144 0  0.0172 0.00144 0  0.0176 0.00144 0  0.018 0.00144 0  0.0184 0.00144 0  0.0188 0.00144 0  0.0192 0.00144 0  0.0196 0.00144 0  0.02 0.00144 0  0 0.00168 0  0.0004 0.00168 0  0.0008 0.00168 0  0.0012 0.00168 0  0.0016 0.00168 0  0.002 0.00168 0  0.0024 0.00168 0  0.0028 0.00168 0  0.0032 0.00168 0  0.0036 0.00168 0  0.004 0.00168 0  0.0044 0.00168 0  0.0048 0.00168 0  0.0052 0.00168 0  0.005600000000000001 0.00168 0  0.006 0.00168 0  0.0064 0.00168 0  0.0068 0.00168 0  0.0072 0.00168 0  0.0076 0.00168 0  0.008 0.00168 0  0.008399999999999999 0.00168 0  0.008800000000000001 0.00168 0  0.0092 0.00168 0  0.009599999999999999 0.00168 0  0.01 0.00168 0  0.0104 0.00168 0  0.0108 0.00168 0  0.0112 0.00168 0  0.0116 0.00168 0  0.012 0.00168 0  0.0124 0.00168 0  0.0128 0.00168 0  0.0132 0.00168 0  0.0136 0.00168 0  0.014 0.00168 0  0.0144 0.00168 0  0.0148 0.00168 0  0.0152 0.00168 0  0.0156 0.00168 0  0.016 0.00168 0  0.0164 0.00168 0  0.0168 0.00168 0  0.0172 0.00168 0  0.0176 0.00168 0  0.018 0.00168 0  0.0184 0.00168 0  0.0188 0.00168 0  0.0192 0.00168 0  0.0196 0.00168 0  0.02 0.00168 0  0 0.00192 0  0.0004 0.00192 0  0.0008 0.00192 0  0.0012 0.00192 0  0.0016 0.00192 0  0.002 0.00192 0  0.0024 0.00192 0  0.0028 0.00192 0  0.0032 0.00192 0  0.0036 0.00192 0  0.004 0.00192 0  0.0044 0.00192 0  0.0048 0.00192 0  0.0052 0.00192 0  0.005600000000000001 0.00192 0  0.006 0.00192 0  0.0064 0.00192 0  0.0068 0.00192 0  0.0072 0.00192 0  0.0076 0.00192 0  0.008 0.00192 0  0.008399999999999999 0.00192 0  0.008800000000000001 0.00192 0  0.0092 0.00192 0  0.009599999999999999 0.00192 0  0.01 0.00192 0  0.0104 0.00192 0  0.0108 0.00192 0  0.0112 0.00192 0  0.0116 0.00192 0  0.012 0.00192 0  0.0124 0.00192 0  0.0128 0.00192 0  0.0132 0.00192 0  0.0136 0.00192 0  0.014 0.00192 0  0.0144 0.00192 0  0.0148 0.00192 0  0.0152 0.00192 0  0.0156 0.00192 0  0.016 0.00192 0  0.0164 0.00192 0  0.0168 0.00192 0  0.0172 0.00192 0  0.0176 0.00192 0  0.018 0.00192 0  0.0184 0.00192 0  0.0188 0.00192 0  0.0192 0.00192 0  0.0196 0.00192 0  0.02 0.00192 0  0 0.00216 0  0.0004 0.00216 0  0.0008 0.00216 0  0.0012 0.00216 0  0.0016 0.00216 0  0.002 0.00216 0  0.0024 0.00216 0  0.0028 0.00216 0  0.0032 0.00216 0  0.0036 0.00216 0  0.004 0.00216 0  0.0044 0.00216 0  0.0048 0.00216 0  0.0052 0.00216 0  0.005600000000000001 0.00216 0  0.006 0.00216 0  0.0064 0.00216 0  0.0068 0.00216 0  0.0072 0.00216 0  0.0076 0.00216 0  0.008 0.00216 0  0.008399999999999999 0.00216 0  0.008800000000000001 0.00216 0  0.0092 0.00216 0  0.009599999999999999 0.00216 0  0.01 0.00216 0  0.0104 0.00216 0  0.0108 0.00216 0  0.0112 0.00216 0  0.0116 0.00216 0  0.012 0.00216 0  0.0124 0.00216 0  0.0128 0.00216 0  0.0132 0.00216 0  0.0136 0.00216 0  0.014 0.00216 0  0.0144 0.00216 0  0.0148 0.00216 0  0.0152 0.00216 0  0.0156 0.00216 0  0.016 0.00216 0  0.0164 0.00216 0  0.0168 0.00216 0  0.0172 0.00216 0  0.0176 0.00216 0  0.018 0.00216 0  0.0184 0.00216 0  0.0188 0.00216 0  0.0192 0.00216 0  0.0196 0.00216 0  0.02 0.00216 0  0 0.0024 0  0.0004 0.0024 0  0.0008 0.0024 0  0.0012 0.0024 0  0.0016 0.0024 0  0.002 0.0024 0  0.0024 0.0024 0  0.0028 0.0024 0  0.0032 0.0024 0  0.0036 0.0024 0  0.004 0.0024 0  0.0044 0.0024 0  0.0048 0.0024 0  0.0052 0.0024 0  0.005600000000000001 0.0024 0  0.006 0.0024 0  0.0064 0.0024 0  0.0068 0.0024 0  0.0072 0.0024 0  0.0076 0.0024 0  0.008 0.0024 0  0.008399999999999999 0.0024 0  0.008800000000000001 0.0024 0  0.0092 0.0024 0  0.009599999999999999 0.0024 0  0.01 0.0024 0  0.0104 0.0024 0  0.0108 0.0024 0  0.0112 0.0024 0  0.0116 0.0024 0  0.012 0.0024
[...]
<PointData  Scalars="T [K]"> 
<DataArray  type="Float64"  Name="T [K]"  format="ascii">3.0000000000000006e+02  3.0000000000000006e+02  3.0000000000000000e+02  3.0000000000000000e+02  3.0000000000000006e+02  3.0000000000000000e+02  3.0000000000000006e+02  3.0000000000000000e+02  3.0000000000000006e+02  3.0000000000000000e+02  3.0000000000000006e+02  3.0000000000000000e+02  3.0000000000000006e+02  3.0000000000000000e+02  3.0000000000000006e+02  3.0000000000000000e+02  3.0000000000000006e+02  3.0000000000000000e+02  3.0000000000000006e+02  3.0000000000000000e+02  3.0000000000000006e+02  3.0000000000000000e+02  3.0000000000000006e+02  3.0000000000000000e+02  3.0000000000000006e+02  3.0000000000000000e+02  3.0000000000000006e+02  3.0000000000000000e+02  3.0000000000000006e+02  3.0000000000000000e+02  3.0000000000000006e+02  3.0000000000000000e+02  3.0000000000000006e+02  3.0000000000000000e+02  3.0000000000000006e+02  3.0000000000000000e+02  3.0000000000000006e+02  3.0000000000000000e+02  3.0000000000000006e+02  3.0000000000000000e+02  3.0000000000000006e+02  3.0000000000000000e+02  3.0000000000000006e+02  3.0000000000000000e+02  3.0000000000000006e+02  3.0000000000000000e+02  3.0000000000000006e+02  3.0000000000000000e+02  3.0000000000000000e+02  3.0000000000000006e+02  3.0000000000000006e+02  3.0259977953534496e+02  3.0259747417767181e+02  3.0259977953534514e+02  3.0259747417767187e+02  3.0259977953534525e+02  3.0259747417767210e+02  3.0259977953534536e+02  3.0259747417767198e+02  3.0259977953534536e+02  3.0259747417767193e+02  3.0259977953534531e+02  3.0259747417767193e+02  3.0259977953534542e+02  3.0259747417767204e+02  3.0259977953534531e+02  3.0259747417767193e+02  3.0259977953534531e+02  3.0259747417767187e+02  3.0259977953534542e+02  3.0259747417767204e+02  3.0259977953534542e+02  3.0259747417767204e+02  3.0259977953534536e+02  3.0259747417767198e+02  3.0259977953534536e+02  3.0259747417767198e+02  3.0259977953534542e+02  3.0259747417767204e+02  3.0259977953534531e+02  3.0259747417767187e+02  3.0259977953534548e+02  3.0259747417767215e+02  3.0259977953534553e+02  3.0259747417767221e+02  3.0259977953534570e+02  3.0259747417767227e+02  3.0259977953534559e+02  3.0259747417767221e+02  3.0259977953534565e+02  3.0259747417767227e+02  3.0259977953534565e+02  3.0259747417767227e+02  3.0259977953534570e+02  3.0259747417767238e+02  3.0259977953534582e+02  3.0259747417767232e+02  3.0259977953534565e+02  3.0259747417767221e+02  3.0259977953534559e+02  3.0259747417767227e+02  3.0259977953534576e+02  3.0521073559605310e+02  3.0521232184741632e+02  3.0521073559605338e+02  3.0521232184741655e+02  3.0521073559605355e+02  3.0521232184741677e+02  3.0521073559605367e+02  3.0521232184741672e+02  3.0521073559605355e+02  3.0521232184741660e+02  3.0521073559605361e+02  3.0521232184741672e+02  3.0521073559605372e+02  3.0521232184741677e+02  3.0521073559605350e+02  3.0521232184741655e+02  3.0521073559605355e+02  3.0521232184741666e+02  3.0521073559605372e+02  3.0521232184741683e+02  3.0521073559605372e+02  3.0521232184741677e+02  3.0521073559605367e+02  3.0521232184741672e+02  3.0521073559605367e+02  3.0521232184741677e+02  3.0521073559605384e+02  3.0521232184741677e+02  3.0521073559605367e+02  3.0521232184741666e+02  3.0521073559605384e+02  3.0521232184741694e+02  3.0521073559605412e+02  3.0521232184741712e+02  3.0521073559605418e+02  3.0521232184741717e+02  3.0521073559605418e+02  3.0521232184741717e+02  3.0521073559605429e+02  3.0521232184741729e+02  3.0521073559605429e+02  3.0521232184741734e+02  3.0521073559605435e+02  3.0521232184741740e+02  3.0521073559605446e+02  3.0521232184741734e+02  3.0521073559605418e+02  3.0521232184741717e+02  3.0521073559605418e+02  3.0521232184741729e+02  3.0521073559605435e+02  3.0783974725972490e+02  3.0783791045333265e+02  3.0783974725972541e+02  3.0783791045333294e+02  3.0783974725972564e+02  3.0783791045333322e+02  3.0783974725972575e+02  3.0783791045333328e+02  3.0783974725972575e+02  3.0783791045333305e+02  3.0783974725972570e+02  3.0783791045333322e+02  3.0783974725972581e+02  3.0783791045333311e+02  3.0783974725972570e+02  3.0783791045333294e+02  3.0783974725972564e+02  3.0783791045333311e+02  3.0783974725972587e+02  3.0783791045333334e+02  3.0783974725972598e+02  3.0783791045333334e+02  3.0783974725972587e+02  3.0783791045333322e+02  3.0783974725972593e+02  3.0783791045333328e+02  3.0783974725972604e+02  3.0783791045333339e+02  3.0783974725972598e+02  3.0783791045333339e+02  3.0783974725972610e+02  3.0783791045333368e+02  3.0783974725972638e+02  3.0783791045333379e+02  3.0783974725972649e+02  3.0783791045333390e+02  3.0783974725972649e+02  3.0783791045333396e+02  3.0783974725972672e+02  3.0783791045333408e+02  3.0783974725972678e+02  3.0783791045333419e+02  3.0783974725972683e+02  3.0783791045333436e+02  3.0783974725972695e+02  3.0783791045333413e+02  3.0783974725972655e+02  3.0783791045333396e+02  3.0783974725972661e+02  3.0783791045333408e+02  3.0783974725972683e+02  3.1047976288973240e+02  3.1048153951770661e+02  3.1047976288973280e+02  3.1048153951770701e+02  3.1047976288973308e+02  3.1048153951770735e+02  3.1047976288973337e+02  3.1048153951770746e+02  3.1047976288973337e+02  3.1048153951770735e+02  3.1047976288973325e+02  3.1048153951770746e+02  3.1047976288973348e+02  3.1048153951770729e+02  3.1047976288973337e+02  3.1048153951770718e+02  3.1047976288973314e+02  3.1048153951770735e+02  3.1047976288973354e+02  3.1048153951770757e+02  3.1047976288973365e+02  3.1048153951770757e+02  3.1047976288973359e+02  3.1048153951770763e+02  3.1047976288973365e+02  3.1048153951770757e+02  3.1047976288973376e+02  3.1048153951770774e+02  3.1047976288973382e+02  3.1048153951770786e+02  3.1047976288973399e+02  3.1048153951770797e+02  3.1047976288973422e+02  3.1048153951770820e+02  3.1047976288973439e+02  3.1048153951770837e+02  3.1047976288973445e+02  3.1048153951770843e+02  3.1047976288973473e+02  3.1048153951770865e+02  3.1047976288973479e+02  3.1048153951770877e+02  3.1047976288973484e+02  3.1048153951770894e+02  3.1047976288973490e+02  3.1048153951770871e+02  3.1047976288973456e+02  3.1048153951770843e+02  3.1047976288973450e+02  3.1048153951770854e+02  3.1047976288973467e+02  3.1313802847678033e+02  3.1313621230389384e+02  3.1313802847678090e+02  3.1313621230389430e+02  3.1313802847678124e+02  3.1313621230389464e+02  3.1313802847678159e+02  3.1313621230389481e+02  3.1313802847678164e+02  3.1313621230389487e+02  3.1313802847678159e+02  3.1313621230389492e+02  3.1313802847678170e+02  3.1313621230389464e+02  3.1313802847678153e+02  3.1313621230389452e+02  3.1313802847678141e+02  3.1313621230389487e+02  3.1313802847678181e+02  3.1313621230389504e+02  3.1313802847678193e+02  3.1313621230389498e+02  3.1313802847678193e+02  3.1313621230389509e+02  3.1313802847678193e+02  3.1313621230389515e+02  3.1313802847678204e+02  3.1313621230389526e+02  3.1313802847678221e+02  3.1313621230389549e+02  3.1313802847678238e+02  3.1313621230389555e+02  3.1313802847678255e+02  3.1313621230389595e+02  3.1313802847678289e+02  3.1313621230389606e+02  3.1313802847678295e+02  3.1313621230389629e+02  3.1313802847678323e+02  3.1313621230389657e+02  3.1313802847678340e+02  3.1313621230389663e+02  3.1313802847678346e+02  3.1313621230389674e+02  3.1313802847678357e+02  3.1313621230389646e+02  3.1313802847678301e+02  3.1313621230389612e+02  3.1313802847678295e+02  3.1313621230389623e+02  3.1313802847678335e+02  3.1580744980362368e+02  3.1580927366568591e+02  3.1580744980362414e+02  3.1580927366568636e+02  3.1580744980362459e+02  3.1580927366568665e+02  3.1580744980362488e+02  3.1580927366568693e+02  3.1580744980362493e+02  3.1580927366568699e+02  3.1580744980362493e+02  3.1580927366568699e+02  3.1580744980362510e+02  3.1580927366568676e+02  3.1580744980362476e+02  3.1580927366568659e+02  3.1580744980362465e+02  3.1580927366568693e+02  3.1580744980362510e+02  3.1580927366568710e+02  3.1580744980362533e+02  3.1580927366568710e+02  3.1580744980362527e+02  3.1580927366568716e+02  3.1580744980362533e+02  3.1580927366568733e+02  3.1580744980362556e+02  3.1580927366568756e+02  3.1580744980362573e+02  3.1580927366568784e+02  3.1580744980362596e+02  3.1580927366568784e+02  3.1580744980362601e+02  3.1580927366568818e+02  3.1580744980362653e+02  3.1580927366568847e+02  3.1580744980362658e+02  3.1580927366568869e+02  3.1580744980362692e+02  3.1580927366568892e+02  3.1580744980362715e+02  3.1580927366568903e+02  3.1580744980362715e+02  3.1580927366568915e+02  3.1580744980362726e+02  3.1580927366568881e+02  3.1580744980362658e+02  3.1580927366568841e+02  3.1580744980362658e+02  3.1580927366568875e+02  3.1580744980362698e+02  3.1849542219009146e+02  3.1849358031336334e+02  3.1849542219009209e+02  3.1849358031336379e+02  3.1849542219009243e+02  3.1849358031336413e+02  3.1849542219009277e+02  3.1849358031336448e+02  3.1849542219009294e+02  3.1849358031336453e+02  3.1849542219009300e+02  3.1849358031336453e+02  3.1849542219009294e+02  3.1849358031336425e+02  3.1849542219009260e+02  3.1849358031336408e+02  3.1849542219009277e+02  3.1849358031336448e+02  3.1849542219009300e+02  3.1849358031336465e+02  3.1849542219009328e+02  3.1849358031336470e+02  3.1849542219009328e+02  3.1849358031336482e+02  3.1849542219009339e+02  3.1849358031336499e+02  3.1849542219009356e+02  3.1849358031336527e+02  3.1849542219009390e+02  3.1849358031336567e+02  3.1849542219009413e+02  3.1849358031336556e+02  3.1849542219009425e+02  3.1849358031336601e+02  3.1849542219009470e+02  3.1849358031336635e+02  3.1849542219009481e+02  3.1849358031336658e+02  3.1849542219009527e+02  3.1849358031336681e+02  3.1849542219009538e+02  3.1849358031336692e+02  3.1849542219009544e+02  3.1849358031336703e+02  3.1849542219009538e+02  3.1849358031336664e+02  3.1849542219009481e+02  3.1849358031336629e+02  3.1849542219009481e+02  3.1849358031336652e+02  3.1849542219009527e+02  3.2119473731154289e+02  3.2119659400736992e+02  3.2119473731154329e+02  3.2119659400737032e+02  3.2119473731154375e+02  3.2119659400737083e+02  3.2119473731154420e+02  3.2119659400737112e+02  3.2119473731154437e+02  3.2119659400737129e+02  3.2119473731154443e+02  3.2119659400737123e+02  3.2119473731154426e+02  3.2119659400737089e+02  3.2119473731154392e+02  3.2119659400737083e+02  3.2119473731154426e+02  3.2119659400737129e+02  3.2119473731154432e+02  3.2119659400737129e+02  3.2119473731154460e+02  3.2119659400737146e+02  3.2119473731154471e+02  3.2119659400737152e+02  3.2119473731154477e+02  3.2119659400737180e+02  3.2119473731154505e+02  3.2119659400737214e+02  3.2119473731154545e+02  3.2119659400737254e+02  3.2119473731154568e+02  3.2119659400737260e+02  3.2119473731154585e+02  3.2119659400737294e+02  3.2119473731154631e+02  3.2119659400737322e+02  3.2119473731154659e+02  3.2119659400737368e+02  3.2119473731154704e+02  3.2119659400737390e+02  3.2119473731154704e+02  3.2119659400737385e+02  3.2119473731154710e+02  3.2119659400737396e+02  3.2119473731154699e+02  3.2119659400737362e+02  3.2119473731154659e+02  3.2119659400737328e+02  3.2119473731154642e+02  3.2119659400737345e+02  3.2119473731154682e+02  3.2391291871191407e+02  3.2391104605714332e+02  3.2391291871191453e+02  3.2391104605714378e+02  3.2391291871191510e+02  3.2391104605714429e+02  3.2391291871191572e+02  3.2391104605714457e+02  3.2391291871191572e+02  3.2391104605714480e+02  3.2391291871191572e+02  3.2391104605714474e+02  3.2391291871191549e+02  3.2391104605714429e+02  3.2391291871191521e+02  3.2391104605714429e+02  3.2391291871191561e+02  3.2391104605714480e+02  3.2391291871191567e+02  3.2391104605714469e+02  3.2391291871191595e+02  3.2391104605714492e+02  3.2391291871191595e+02  3.2391104605714503e+02  3.2391291871191623e+02  3.2391104605714554e+02  3.2391291871191663e+02  3.2391104605714582e+02  3.2391291871191709e+02  3.2391104605714639e+02  3.2391291871191737e+02  3.2391104605714645e+02  3.2391291871191743e+02  3.2391104605714668e+02  3.2391291871191794e+02  3.2391104605714696e+02  3.2391291871191828e+02  3.2391104605714753e+02  3.2391291871191868e+02  3.2391104605714781e+02  3.2391291871191873e+02  3.2391104605714759e+02  3.2391291871191879e+02  3.2391104605714781e+02  3.2391291871191862e+02  3.2391104605714730e+02  3.2391291871191828e+02  3.2391104605714713e+02  3.2391291871191811e+02  3.2391104605714719e+02  3.2391291871191851e+02  3.2664263538607293e+02  3.2664452375080879e+02  3.2664263538607349e+02  3.2664452375080924e+02  3.2664263538607406e+02  3.2664452375080975e+02  3.2664263538607463e+02  3.2664452375081015e+02  3.2664263538607469e+02  3.2664452375081021e+02  3.2664263538607463e+02  3.2664452375081009e+02  3.2664263538607435e+02  3.2664452375080970e+02  3.2664263538607423e+02  3.2664452375080975e+02  3.2664263538607435e+02  3.2664452375081015e+02  3.2664263538607463e+02  3.2664452375081021e+02  3.2664263538607480e+02  3.2664452375081049e+02  3.2664263538607503e+02  3.2664452375081066e+02  3.2664263538607526e+02  3.2664452375081117e+02  3.2664263538607565e+02  3.2664452375081157e+02  3.2664263538607628e+02  3.2664452375081214e+02  3.2664263538607679e+02  3.2664452375081237e+02  3.2664263538607673e+02  3.2664452375081254e+02  3.2664263538607713e+02  3.2664452375081282e+02  3.2664263538607747e+02  3.2664452375081333e+02  3.2664263538607787e+02  3.2664452375081356e+02  3.2664263538607804e+02  3.2664452375081351e+02  3.2664263538607798e+02  3.2664452375081356e+02  3.2664263538607781e+02  3.2664452375081316e+02  3.2664263538607753e+02  3.2664452375081299e+02  3.2664263538607725e+02  3.2664452375081282e+02  3.2664263538607742e+02  3.2939153820949861e+02  3.2938963393758070e+02  3.2939153820949929e+02  3.2938963393758149e+02  3.2939153820950003e+02  3.2938963393758183e+02  3.2939153820950048e+02  3.2938963393758218e+02  3.2939153820950065e+02  3.2938963393758240e+02  3.2939153820950054e+02  3.2938963393758218e+02  3.2939153820950020e+02  3.2938963393758178e+02  3.2939153820950020e+02  3.2938963393758189e+02  3.2939153820950031e+02  3.2938963393758223e+02  3.2939153820950054e+02  3.2938963393758223e+02  3.2939153820950071e+02  3.2938963393758257e+02  3.2939153820950105e+02  3.2938963393758291e+02  3.2939153820950133e+02  3.2938963393758331e+02  3.2939153820950179e+02  3.2938963393758388e+02  3.2939153820950253e+02  3.2938963393758456e+02  3.2939153820950304e+02  3.2938963393758473e+02  3.2939153820950310e+02  3.2938963393758485e+02  3.2939153820950338e+02  3.2938963393758524e+02  3.2939153820950384e+02  3.2938963393758576e+02  3.2939153820950406e+02  3.2938963393758598e+02  3.2939153820950423e+02  3.2938963393758587e+02  3.2939153820950423e+02  3.2938963393758598e+02  3.2939153820950412e+02  3.2938963393758559e+02  3.2939153820950378e+02  3.2938963393758530e+02  3.2939153820950344e+02  3.2938963393758519e+02  3.2939153820950361e+02  3.3215217137196822e+02  3.3215409160623818e+02  3.3215217137196890e+02  3.3215409160623898e+02  3.3215217137196964e+02  3.3215409160623955e+02  3.3215217137197010e+02  3.3215409160623983e+02  3.3215217137197027e+02  3.3215409160624000e+02  3.3215217137197010e+02  3.3215409160623960e+02  3.3215217137196981e+02  3.3215409160623932e+02  3.3215217137196981e+02  3.3215409160623955e+02  3.3215217137196981e+02  3.3215409160623955e+02  3.3215217137197004e+02  3.3215409160623972e+02  3.3215217137197027e+02  3.3215409160624012e+02  3.3215217137197072e+02  3.3215409160624057e+02  3.3215217137197112e+02  3.3215409160624114e+02  3.3215217137197158e+02  3.3215409160624171e+02  3.3215217137197232e+02  3.3215409160624233e+02  3.3215217137197288e+02  3.3215409160624256e+02  3.3215217137197300e+02  3.3215409160624279e+02  3.3215217137197345e+02  3.3215409160624324e+02  3.3215217137197374e+02  3.3215409160624358e+02  3.3215217137197391e+02  3.3215409160624375e+02  3.3215217137197419e+02  3.3215409160624387e+02  3.3215217137197413e+02  3.3215409160624387e+02  3.3215217137197408e+02  3.3215409160624353e+02  3.3215217137197362e+02  3.3215409160624313e+02  3.3215217137197340e+02  3.3215409160624307e+02  3.3215217137197334e+02  3.3493231428661244e+02  3.3493037798829278e+02  3.3493231428661312e+02  3.3493037798829351e+02  3.3493231428661409e+02  3.3493037798829425e+02  3.3493231428661460e+02  3.3493037798829459e+02  3.3493231428661483e+02  3.3493037798829465e+02  3.3493231428661448e+02  3.3493037798829425e+02  3.3493231428661426e+02  3.3493037798829408e+02  3.3493231428661426e+02  3.3493037798829420e+02  3.3493231428661426e+02  3.3493037798829414e+02  3.3493231428661437e+02  3.3493037798829437e+02  3.3493231428661471e+02  3.3493037798829482e+02  3.3493231428661522e+02  3.3493037798829545e+02  3.3493231428661579e+02  3.3493037798829607e+02  3.3493231428661642e+02  3.3493037798829670e+02  3.3493231428661699e+02  3.3493037798829727e+02  3.3493231428661755e+02  3.3493037798829749e+02  3.3493231428661772e+02  3.3493037798829772e+02  3.3493231428661812e+02  3.3493037798829829e+02  3.3493231428661858e+02  3.3493037798829857e+02  3.3493231428661875e+02  3.3493037798829874e+02  3.3493231428661903e+02  3.3493037798829891e+02  3.3493231428661903e+02  3.3493037798829886e+02  3.3493231428661886e+02  3.3493037798829852e+02  3.3493231428661846e+02  3.3493037798829801e+02  3.3493231428661812e+02  3.3493037798829795e+02  3.3493231428661818e+02  3.3772438485502511e+02  3.3772633730517799e+02  3.3772438485502573e+02  3.3772633730517873e+02  3.3772438485502670e+02  3.3772633730517947e+02  3.3772438485502721e+02  3.3772633730517987e+02  3.3772438485502738e+02  3.3772633730517975e+02  3.3772438485502698e+02  3.3772633730517936e+02  3.3772438485502681e+02  3.3772633730517936e+02  3.3772438485502687e+02  3.3772633730517947e+02  3.3772438485502681e+02  3.3772633730517930e+02  3.3772438485502687e+02  3.3772633730517958e+02  3.3772438485502738e+02  3.3772633730518015e+02  3.3772438485502795e+02  3.3772633730518078e+02  3.3772438485502857e+02  3.3772633730518152e+02  3.3772438485502926e+02  3.3772633730518214e+02  3.3772438485502983e+02  3.3772633730518265e+02  3.3772438485503039e+02  3.3772633730518305e+02  3.3772438485503062e+02  3.3772633730518334e+02  3.3772438485503113e+02  3.3772633730518385e+02  3.3772438485503147e+02  3.3772633730518413e+02  3.3772438485503170e+02  3.3772633730518430e+02  3.3772438485503187e+02  3.3772633730518453e+02  3.3772438485503204e+02  3.3772633730518447e+02  3.3772438485503176e+02  3.3772633730518407e+02  3.3772438485503130e+02  3.3772633730518351e+02  3.3772438485503096e+02  3.3772633730518345e+02  3.3772438485503096e+02  3.4053629247155391e+02  3.4053432377632117e+02  3.4053629247155465e+02  3.4053432377632174e+02  3.4053629247155550e+02  3.4053432377632259e+02  3.4053629247155612e+02  3.4053432377632299e+02  3.4053629247155629e+02  3.4053432377632288e+02  3.4053629247155584e+02  3.4053432377632237e+02  3.4053629247155561e+02  3.4053432377632248e+02  3.4053629247155573e+02  3.4053432377632248e+02  3.4053629247155567e+02  3.4053432377632237e+02  3.4053629247155573e+02  3.4053432377632265e+02  3.4053629247155629e+02  3.4053432377632333e+02  3.4053629247155698e+02  3.4053432377632407e+02  3.4053629247155789e+02  3.4053432377632498e+02  3.4053629247155857e+02  3.4053432377632566e+02  3.4053629247155908e+02  3.4053432377632612e+02  3.4053629247155965e+02  3.4053432377632652e+02  3.4053629247155999e+02  3.4053432377632680e+02  3.4053629247156033e+02  3.4053432377632737e+02  3.4053629247156073e+02  3.4053432377632777e+02  3.4053629247156096e+02  3.4053432377632788e+02  3.4053629247156124e+02  3.4053432377632805e+02  3.4053629247156130e+02  3.4053432377632794e+02  3.4053629247156096e+02  3.4053432377632760e+02  3.4053629247156056e+02  3.4053432377632686e+02  3.4053629247156010e+02  3.4053432377632680e+02  3.4053629247156027e+02  3.4336032731103069e+02  3.4336231234385156e+02  3.4336032731103131e+02  3.4336231234385207e+02  3.4336032731103205e+02  3.4336231234385292e+02  3.4336032731103279e+02  3.4336231234385332e+02  3.4336032731103273e+02  3.4336231234385309e+02  3.4336032731103239e+02  3.4336231234385275e+02  3.4336032731103217e+02  3.433623123438528