<?xml version="1.0"?>
<VTKFile type="UnstructuredGrid"  version="0.1"  >
<UnstructuredGrid>
<Piece  NumberOfPoints="2601" NumberOfCells="5000">
<Points>
<DataArray  type="Float64"  NumberOfComponents="3"  format="ascii">0 0 0  0.0004 0 0  0.0008 0 0  0.0012 0 0  0.0016 0 0  0.002 0 0  0.0024 0 0  0.0028 0 0  0.0032 0 0  0.0036 0 0  0.004 0 0  0.0044 0 0  0.0048 0 0  0.0052 0 0  0.005600000000000001 0 0  0.006 0 0  0.0064 0 0  0.0068 0 0  0.0072 0 0  0.0076 0 0  0.008 0 0  0.008399999999999999 0 0  0.008800000000000001 0 0  0.0092 0 0  0.009599999999999999 0 0  0.01 0 0  0.0104 0 0  0.0108 0 0  0.0112 0 0  0.0116 0 0  0.012 0 0  0.0124 0 0  0.0128 0 0  0.0132 0 0  0.0136 0 0  0.014 0 0  0.0144 0 0  0.0148 0 0  0.0152 0 0  0.0156 0 0  0.016 0 0  0.0164 0 0  0.0168 0 0  0.0172 0 0  0.0176 0 0  0.018 0 0  0.0184 0 0  0.0188 0 0  0.0192 0 0  0.0196 0 0  0.02 0 0  0 0.00024 0  0.0004 0.00024 0  0.0008 0.00024 0  0.0012 0.00024 0  0.0016 0.00024 0  0.002 0.00024 0  0.0024 0.00024 0  0.0028 0.00024 0  0.0032 0.00024 0  0.0036 0.00024 0  0.004 0.00024 0  0.0044 0.00024 0  0.0048 0.00024 0  0.0052 0.00024 0  0.005600000000000001 0.00024 0  0.006 0.00024 0  0.0064 0.00024 0  0.0068 0.00024 0  0.0072 0.00024 0  0.0076 0.00024 0  0.008 0.00024 0  0.008399999999999999 0.00024 0  0.008800000000000001 0.00024 0  0.0092 0.00024 0  0.009599999999999999 0.00024 0  0.01 0.00024 0  0.0104 0.00024 0  0.0108 0.00024 0  0.0112 0.00024 0  0.0116 0.00024 0  0.012 0.00024 0  0.0124 0.00024 0  0.0128 0.00024 0  0.0132 0.00024 0  0.0136 0.00024 0  0.014 0.00024 0  0.0144 0.00024 0  0.0148 0.00024 0  0.0152 0.00024 0  0.0156 0.00024 0  0.016 0.00024 0  0.0164 0.00024 0  0.0168 0.00024 0  0.0172 0.00024 0  0.0176 0.00024 0  0.018 0.00024 0  0.0184 0.00024 0  0.0188 0.00024 0  0.0192 0.00024 0  0.0196 0.00024 0  0.02 0.00024 0  0 0.00048 0  0.0004 0.00048 0  0.0008 0.00048 0  0.0012 0.00048 0  0.0016 0.00048 0  0.002 0.00048 0  0.0024 0.00048 0  0.0028 0.00048 0  0.0032 0.00048 0  0.0036 0.00048 0  0.004 0.00048 0  0.0044 0.00048 0  0.0048 0.00048 0  0.0052 0.00048 0  0.005600000000000001 0.00048 0  0.006 0.00048 0  0.0064 0.00048 0  0.0068 0.00048 0  0.0072 0.00048 0  0.0076 0.00048 0  0.008 0.00048 0  0.008399999999999999 0.00048 0  0.008800000000000001 0.00048 0  0.0092 0.00048 0  0.009599999999999999 0.00048 0  0.01 0.00048 0  0.0104 0.00048 0  0.0108 0.00048 0  0.0112 0.00048 0  0.0116 0.00048 0  0.012 0.00048 0  0.0124 0.00048 0  0.0128 0.00048 0  0.0132 0.00048 0  0.0136 0.00048 0  0.014 0.00048 0  0.0144 0.00048 0  0.0148 0.00048 0  0.0152 0.00048 0  0.0156 0.00048 0  0.016 0.00048 0  0.0164 0.00048 0  0.0168 0.00048 0  0.0172 0.00048 0  0.0176 0.00048 0  0.018 0.00048 0  0.0184 0.00048 0  0.0188 0.00048 0  0.0192 0.00048 0  0.0196 0.00048 0  0.02 0.00048 0  0 0.00072 0  0.0004 0.00072 0  0.0008 0.00072 0  0.0012 0.00072 0  0.0016 0.00072 0  0.002 0.00072 0  0.0024 0.00072 0  0.0028 0.00072 0  0.0032 0.00072 0  0.0036 0.00072 0  0.004 0.00072 0  0.0044 0.00072 0  0.0048 0.00072 0  0.0052 0.00072 0  0.005600000000000001 0.00072 0  0.006 0.00072 0  0.0064 0.00072 0  0.0068 0.00072 0  0.0072 0.00072 0  0.0076 0.00072 0  0.008 0.00072 0  0.008399999999999999 0.00072 0  0.008800000000000001 0.00072 0  0.0092 0.00072 0  0.009599999999999999 0.00072 0  0.01 0.00072 0  0.0104 0.00072 0  0.0108 0.00072 0  0.0112 0.00072 0  0.0116 0.00072 0  0.012 0.00072 0  0.0124 0.00072 0  0.0128 0.00072 0  0.0132 0.00072 0  0.0136 0.00072 0  0.014 0.00072 0  0.0144 0.00072 0  0.0148 0.00072 0  0.0152 0.00072 0  0.0156 0.00072 0  0.016 0.00072 0  0.0164 0.00072 0  0.0168 0.00072 0  0.0172 0.00072 0  0.0176 0.00072 0  0.018 0.00072 0  0.0184 0.00072 0  0.0188 0.00072 0  0.0192 0.00072 0  0.0196 0.00072 0  0.02 0.00072 0  0 0.00096 0  0.0004 0.00096 0  0.0008 0.00096 0  0.0012 0.00096 0  0.0016 0.00096 0  0.002 0.00096 0  0.0024 0.00096 0  0.0028 0.00096 0  0.0032 0.00096 0  0.0036 0.00096 0  0.004 0.00096 0  0.0044 0.00096 0  0.0048 0.00096 0  0.0052 0.00096 0  0.005600000000000001 0.00096 0  0.006 0.00096 0  0.0064 0.00096 0  0.0068 0.00096 0  0.0072 0.00096 0  0.0076 0.00096 0  0.008 0.00096 0  0.008399999999999999 0.00096 0  0.008800000000000001 0.00096 0  0.0092 0.00096 0  0.009599999999999999 0.00096 0  0.01 0.00096 0  0.0104 0.00096 0  0.0108 0.00096 0  0.0112 0.00096 0  0.0116 0.00096 0  0.012 0.00096 0  0.0124 0.00096 0  0.0128 0.00096 0  0.0132 0.00096 0  0.0136 0.00096 0  0.014 0.00096 0  0.0144 0.00096 0  0.0148 0.00096 0  0.0152 0.00096 0  0.0156 0.00096 0  0.016 0.00096 0  0.0164 0.00096 0  0.0168 0.00096 0  0.0172 0.00096 0  0.0176 0.00096 0  0.018 0.00096 0  0.0184 0.00096 0  0.0188 0.00096 0  0.0192 0.00096 0  0.0196 0.00096 0  0.02 0.00096 0  0 0.0012 0  0.0004 0.0012 0  0.0008 0.0012 0  0.0012 0.0012 0  0.0016 0.0012 0  0.002 0.0012 0  0.0024 0.0012 0  0.0028 0.0012 0  0.0032 0.0012 0  0.0036 0.0012 0  0.004 0.0012 0  0.0044 0.0012 0  0.0048 0.0012 0  0.0052 0.0012 0  0.005600000000000001 0.0012 0  0.006 0.0012 0  0.0064 0.0012 0  0.0068 0.0012 0  0.0072 0.0012 0  0.0076 0.0012 0  0.008 0.0012 0  0.008399999999999999 0.0012 0  0.008800000000000001 0.0012 0  0.0092 0.0012 0  0.009599999999999999 0.0012 0  0.01 0.0012 0  0.0104 0.0012 0  0.0108 0.0012 0  0.0112 0.0012 0  0.0116 0.0012 0  0.012 0.0012 0  0.0124 0.0012 0  0.0128 0.0012 0  0.0132 0.0012 0  0.0136 0.0012 0  0.014 0.0012 0  0.0144 0.0012 0  0.0148 0.0012 0  0.0152 0.0012 0  0.0156 0.0012 0  0.016 0.0012 0  0.0164 0.0012 0  0.0168 0.0012 0  0.0172 0.0012 0  0.0176 0.0012 0  0.018 0.0012 0  0.0184 0.0012 0  0.0188 0.0012 0  0.0192 0.0012 0  0.0196 0.0012 0  0.02 0.0012 0  0 0.00144 0  0.0004 0.00144 0  0.0008 0.00144 0  0.0012 0.00144 0  0.0016 0.00144 0  0.002 0.00144 0  0.0024 0.00144 0  0.0028 0.00144 0  0.0032 0.00144 0  0.0036 0.00144 0  0.004 0.00144 0  0.0044 0.00144 0  0.0048 0.00144 0  0.0052 0.00144 0  0.005600000000000001 0.00144 0  0.006 0.00144 0  0.0064 0.00144 0  0.0068 0.00144 0  0.0072 0.00144 0  0.0076 0.00144 0  0.008 0.00144 0  0.008399999999999999 0.00144 0  0.008800000000000001 0.00144 0  0.0092 0.00144 0  0.009599999999999999 0.00144 0  0.01 0.00144 0  0.0104 0.00144 0  0.0108 0.00144 0  0.0112 0.00144 0  0.0116 0.00144 0  0.012 0.00144 0  0.0124 0.00144 0  0.0128 0.00144 0  0.0132 0.00144 0  0.0136 0.00144 0  0.014 0.00144 0  0.0144 0.00144 0  0.0148 0.00144 0  0.0152 0.00144 0  0.0156 0.00144 0  0.016 0.00144 0  0.0164 0.00144 0  0.0168 0.00144 0  0.0172 0.00144 0  0.0176 0.00144 0  0.018 0.00144 0  0.0184 0.00144 0  0.0188 0.00144 0  0.0192 0.00144 0  0.0196 0.00144 0  0.02 0.00144 0  0 0.00168 0  0.0004 0.00168 0  0.0008 0.00168 0  0.0012 0.00168 0  0.0016 0.00168 0  0.002 0.00168 0  0.0024 0.00168 0  0.0028 0.00168 0  0.0032 0.00168 0  0.0036 0.00168 0  0.004 0.00168 0  0.0044 0.00168 0  0.0048 0.00168 0  0.0052 0.00168 0  0.005600000000000001 0.00168 0  0.006 0.00168 0  0.0064 0.00168 0  0.0068 0.00168 0  0.0072 0.00168 0  0.0076 0.00168 0  0.008 0.00168 0  0.008399999999999999 0.00168 0  0.008800000000000001 0.00168 0  0.0092 0.00168 0  0.009599999999999999 0.00168 0  0.01 0.00168 0  0.0104 0.00168 0  0.0108 0.00168 0  0.0112 0.00168 0  0.0116 0.00168 0  0.012 0.00168 0  0.0124 0.00168 0  0.0128 0.00168 0  0.0132 0.00168 0  0.0136 0.00168 0  0.014 0.00168 0  0.0144 0.00168 0  0.0148 0.00168 0  0.0152 0.00168 0  0.0156 0.00168 0  0.016 0.00168 0  0.0164 0.00168 0  0.0168 0.00168 0  0.0172 0.00168 0  0.0176 0.00168 0  0.018 0.00168 0  0.0184 0.00168 0  0.0188 0.00168 0  0.0192 0.00168 0  0.0196 0.00168 0  0.02 0.00168 0  0 0.00192 0  0.0004 0.00192 0  0.0008 0.00192 0  0.0012 0.00192 0  0.0016 0.00192 0  0.002 0.00192 0  0.0024 0.00192 0  0.0028 0.00192 0  0.0032 0.00192 0  0.0036 0.00192 0  0.004 0.00192 0  0.0044 0.00192 0  0.0048 0.00192 0  0.0052 0.00192 0  0.005600000000000001 0.00192 0  0.006 0.00192 0  0.0064 0.00192 0  0.0068 0.00192 0  0.0072 0.00192 0  0.0076 0.00192 0  0.008 0.00192 0  0.008399999999999999 0.00192 0  0.008800000000000001 0.00192 0  0.0092 0.00192 0  0.009599999999999999 0.00192 0  0.01 0.00192 0  0.0104 0.00192 0  0.0108 0.00192 0  0.0112 0.00192 0  0.0116 0.00192 0  0.012 0.00192 0  0.0124 0.00192 0  0.0128 0.00192 0  0.0132 0.00192 0  0.0136 0.00192 0  0.014 0.00192 0  0.0144 0.00192 0  0.0148 0.00192 0  0.0152 0.00192 0  0.0156 0.00192 0  0.016 0.00192 0  0.0164 0.00192 0  0.0168 0.00192 0  0.0172 0.00192 0  0.0176 0.00192 0  0.018 0.00192 0  0.0184 0.00192 0  0.0188 0.00192 0  0.0192 0.00192 0  0.0196 0.00192 0  0.02 0.00192 0  0 0.00216 0  0.0004 0.00216 0  0.0008 0.00216 0  0.0012 0.00216 0  0.0016 0.00216 0  0.002 0.00216 0  0.0024 0.00216 0  0.0028 0.00216 0  0.0032 0.00216 0  0.0036 0.00216 0  0.004 0.00216 0  0.0044 0.00216 0  0.0048 0.00216 0  0.0052 0.00216 0  0.005600000000000001 0.00216 0  0.006 0.00216 0  0.0064 0.00216 0  0.0068 0.00216 0  0.0072 0.00216 0  0.0076 0.00216 0  0.008 0.00216 0  0.008399999999999999 0.00216 0  0.008800000000000001 0.00216 0  0.0092 0.00216 0  0.009599999999999999 0.00216 0  0.01 0.00216 0  0.0104 0.00216 0  0.0108 0.00216 0  0.0112 0.00216 0  0.0116 0.00216 0  0.012 0.00216 0  0.0124 0.00216 0  0.0128 0.00216 0  0.0132 0.00216 0  0.0136 0.00216 0  0.014 0.00216 0  0.0144 0.00216 0  0.0148 0.00216 0  0.0152 0.00216 0  0.0156 0.00216 0  0.016 0.00216 0  0.0164 0.00216 0  0.0168 0.00216 0  0.0172 0.00216 0  0.0176 0.00216 0  0.018 0.00216 0  0.0184 0.00216 0  0.0188 0.00216 0  0.0192 0.00216 0  0.0196 0.00216 0  0.02 0.00216 0  0 0.0024 0  0.0004 0.0024 0  0.0008 0.0024 0  0.0012 0.0024 0  0.0016 0.0024 0  0.002 0.0024 0  0.0024 0.0024 0  0.0028 0.0024 0  0.0032 0.0024 0  0.0036 0.0024 0  0.004 0.0024 0  0.0044 0.0024 0  0.0048 0.0024 0  0.0052 0.0024 0  0.005600000000000001 0.0024 0  0.006 0.0024 0  0.0064 0.0024 0  0.0068 0.0024 0  0.0072 0.0024 0  0.0076 0.0024 0  0.008 0.0024 0  0.008399999999999999 0.0024 0  0.008800000000000001 0.0024 0  0.0092 0.0024 0  0.009599999999999999 0.0024 0  0.01 0.0024 0  0.0104 0.0024 0  0.0108 0.0024 0  0.0112 0.0024 0  0.0116 0.0024 0  0.012 0.0024
[...]
<PointData  Vectors="U [m]"> 
<DataArray  type="Float64"  Name="U [m]"  NumberOfComponents="3" format="ascii">-2.9065579004974476e-06 -3.8964326496410117e-05 0.0000000000000000e+00  -2.8965476412439540e-06 -3.8080437757537570e-05 0.0000000000000000e+00  -2.8921043094709741e-06 -3.7237001485016607e-05 0.0000000000000000e+00  -2.8907737751402142e-06 -3.6449151049965738e-05 0.0000000000000000e+00  -2.8876161400456218e-06 -3.5712115841608705e-05 0.0000000000000000e+00  -2.8771932115569396e-06 -3.5037555879913392e-05 0.0000000000000000e+00  -2.8588137551813151e-06 -3.4413326111165094e-05 0.0000000000000000e+00  -2.8261520340769199e-06 -3.3848331073195916e-05 0.0000000000000000e+00  -2.7818289565381016e-06 -3.3329881181230284e-05 0.0000000000000000e+00  -2.7194860035625274e-06 -3.2863868212313661e-05 0.0000000000000000e+00  -2.6438680960979654e-06 -3.2439488166356519e-05 0.0000000000000000e+00  -2.5491499608434630e-06 -3.2059827820490406e-05 0.0000000000000000e+00  -2.4411454574136145e-06 -3.1716894377616414e-05 0.0000000000000000e+00  -2.3148806174729289e-06 -3.1411394616563711e-05 0.0000000000000000e+00  -2.1764129009267911e-06 -3.1138296856000989e-05 0.0000000000000000e+00  -2.0217562017268615e-06 -3.0896426323566581e-05 0.0000000000000000e+00  -1.8566344435721397e-06 -3.0683449624089843e-05 0.0000000000000000e+00  -1.6780690733790028e-06 -3.0496794466981525e-05 0.0000000000000000e+00  -1.4910960308278045e-06 -3.0336373301212403e-05 0.0000000000000000e+00  -1.2937031259916172e-06 -3.0198642717999713e-05 0.0000000000000000e+00  -1.0900587195357822e-06 -3.0085257961096966e-05 0.0000000000000000e+00  -8.7905802013650471e-07 -2.9992062741942521e-05 0.0000000000000000e+00  -6.6394235409348281e-07 -2.9921980223673328e-05 0.0000000000000000e+00  -4.4446661797758319e-07 -2.9870542397054364e-05 0.0000000000000000e+00  -2.2295456071875877e-07 -2.9841528555747192e-05 0.0000000000000000e+00  -1.6831371357903269e-18 -2.9830426854726730e-05 0.0000000000000000e+00  2.2295456071538853e-07 -2.9841528555746911e-05 0.0000000000000000e+00  4.4446661797418876e-07 -2.9870542397053843e-05 0.0000000000000000e+00  6.6394235409007181e-07 -2.9921980223672556e-05 0.0000000000000000e+00  8.7905802013307444e-07 -2.9992062741941508e-05 0.0000000000000000e+00  1.0900587195323471e-06 -3.0085257961095661e-05 0.0000000000000000e+00  1.2937031259881294e-06 -3.0198642717998165e-05 0.0000000000000000e+00  1.4910960308242764e-06 -3.0336373301210672e-05 0.0000000000000000e+00  1.6780690733754018e-06 -3.0496794466979563e-05 0.0000000000000000e+00  1.8566344435684608e-06 -3.0683449624087735e-05 0.0000000000000000e+00  2.0217562017231155e-06 -3.0896426323564454e-05 0.0000000000000000e+00  2.1764129009230247e-06 -3.1138296855998834e-05 0.0000000000000000e+00  2.3148806174691338e-06 -3.1411394616561502e-05 0.0000000000000000e+00  2.4411454574097986e-06 -3.1716894377614150e-05 0.0000000000000000e+00  2.5491499608395954e-06 -3.2059827820488061e-05 0.0000000000000000e+00  2.6438680960940513e-06 -3.2439488166354141e-05 0.0000000000000000e+00  2.7194860035585730e-06 -3.2863868212311317e-05 0.0000000000000000e+00  2.7818289565341345e-06 -3.3329881181227966e-05 0.0000000000000000e+00  2.8261520340729461e-06 -3.3848331073193612e-05 0.0000000000000000e+00  2.8588137551773374e-06 -3.4413326111162757e-05 0.0000000000000000e+00  2.8771932115529090e-06 -3.5037555879911068e-05 0.0000000000000000e+00  2.8876161400415548e-06 -3.5712115841606415e-05 0.0000000000000000e+00  2.8907737751360887e-06 -3.6449151049963576e-05 0.0000000000000000e+00  2.8921043094668287e-06 -3.7237001485014547e-05 0.0000000000000000e+00  2.8965476412398323e-06 -3.8080437757535721e-05 0.0000000000000000e+00  2.9065579004933692e-06 -3.8964326496408314e-05 0.0000000000000000e+00  -3.4423493489004870e-06 -3.8959564935156304e-05 0.0000000000000000e+00  -3.4112379803492899e-06 -3.8072497454843577e-05 0.0000000000000000e+00  -3.3808899171929726e-06 -3.7231457636398913e-05 0.0000000000000000e+00  -3.3493905416437992e-06 -3.6439396536819712e-05 0.0000000000000000e+00  -3.3133085323949398e-06 -3.5708912897808513e-05 0.0000000000000000e+00  -3.2718427432587968e-06 -3.5030952424773626e-05 0.0000000000000000e+00  -3.2197868679792175e-06 -3.4414742364975447e-05 0.0000000000000000e+00  -3.1585321676110511e-06 -3.3848117159384813e-05 0.0000000000000000e+00  -3.0824510303372612e-06 -3.3337648005451791e-05 0.0000000000000000e+00  -2.9949671293527229e-06 -3.2871746706490142e-05 0.0000000000000000e+00  -2.8906792391946256e-06 -3.2454430928500841e-05 0.0000000000000000e+00  -2.7742985094159646e-06 -3.2076285138610893e-05 0.0000000000000000e+00  -2.6410330851374415e-06 -3.1739049467057392e-05 0.0000000000000000e+00  -2.4961476862189928e-06 -3.1436047061958912e-05 0.0000000000000000e+00  -2.3356591352807703e-06 -3.1167125022124050e-05 0.0000000000000000e+00  -2.1648033584417261e-06 -3.0928336519117876e-05 0.0000000000000000e+00  -1.9804783151140214e-06 -3.0718046898722535e-05 0.0000000000000000e+00  -1.7874888038278167e-06 -3.0534724877223299e-05 0.0000000000000000e+00  -1.5836101314651178e-06 -3.0375641571110741e-05 0.0000000000000000e+00  -1.3729761740466285e-06 -3.0241234377970544e-05 0.0000000000000000e+00  -1.1542012761335947e-06 -3.0128023022698836e-05 0.0000000000000000e+00  -9.3063377034915400e-07 -3.0037942269611669e-05 0.0000000000000000e+00  -7.0168470641168966e-07 -2.9967059273243401e-05 0.0000000000000000e+00  -4.6988500067546812e-07 -2.9918369385115747e-05 0.0000000000000000e+00  -2.3541493574957757e-07 -2.9887756596103067e-05 0.0000000000000000e+00  -1.7678905288725584e-18 -2.9878897929249693e-05 0.0000000000000000e+00  2.3541493574602111e-07 -2.9887756596102793e-05 0.0000000000000000e+00  4.6988500067191974e-07 -2.9918369385115215e-05 0.0000000000000000e+00  7.0168470640810354e-07 -2.9967059273242611e-05 0.0000000000000000e+00  9.3063377034555877e-07 -3.0037942269610659e-05 0.0000000000000000e+00  1.1542012761299741e-06 -3.0128023022697538e-05 0.0000000000000000e+00  1.3729761740430043e-06 -3.0241234377968989e-05 0.0000000000000000e+00  1.5836101314614364e-06 -3.0375641571109010e-05 0.0000000000000000e+00  1.7874888038241025e-06 -3.0534724877221313e-05 0.0000000000000000e+00  1.9804783151102516e-06 -3.0718046898720435e-05 0.0000000000000000e+00  2.1648033584379382e-06 -3.0928336519115748e-05 0.0000000000000000e+00  2.3356591352769391e-06 -3.1167125022121889e-05 0.0000000000000000e+00  2.4961476862151575e-06 -3.1436047061956696e-05 0.0000000000000000e+00  2.6410330851335519e-06 -3.1739049467055115e-05 0.0000000000000000e+00  2.7742985094120568e-06 -3.2076285138608535e-05 0.0000000000000000e+00  2.8906792391906729e-06 -3.2454430928498463e-05 0.0000000000000000e+00  2.9949671293487681e-06 -3.2871746706487797e-05 0.0000000000000000e+00  3.0824510303332733e-06 -3.3337648005449480e-05 0.0000000000000000e+00  3.1585321676070692e-06 -3.3848117159382515e-05 0.0000000000000000e+00  3.2197868679752026e-06 -3.4414742364973110e-05 0.0000000000000000e+00  3.2718427432547751e-06 -3.5030952424771295e-05 0.0000000000000000e+00  3.3133085323908703e-06 -3.5708912897806222e-05 0.0000000000000000e+00  3.3493905416397224e-06 -3.6439396536817530e-05 0.0000000000000000e+00  3.3808899171888725e-06 -3.7231457636396860e-05 0.0000000000000000e+00  3.4112379803452271e-06 -3.8072497454841734e-05 0.0000000000000000e+00  3.4423493488964221e-06 -3.8959564935154515e-05 0.0000000000000000e+00  -3.9836100949825377e-06 -3.8937164979312563e-05 0.0000000000000000e+00  -3.9283020445441648e-06 -3.8049858005973861e-05 0.0000000000000000e+00  -3.8711261785299258e-06 -3.7205392648069664e-05 0.0000000000000000e+00  -3.8105434981599031e-06 -3.6418234154548015e-05 0.0000000000000000e+00  -3.7457844874021915e-06 -3.5684824242593936e-05 0.0000000000000000e+00  -3.6726803173205771e-06 -3.5013732899758011e-05 0.0000000000000000e+00  -3.5923505003887040e-06 -3.4395575133724783e-05 0.0000000000000000e+00  -3.4996807303742114e-06 -3.3836425491428352e-05 0.0000000000000000e+00  -3.3974405864119269e-06 -3.3325347378819439e-05 0.0000000000000000e+00  -3.2804409677444497e-06 -3.2866531969054277e-05 0.0000000000000000e+00  -3.1527273602131589e-06 -3.2449861448955247e-05 0.0000000000000000e+00  -3.0095224493007706e-06 -3.2077800939717860e-05 0.0000000000000000e+00  -2.8555618809075382e-06 -3.1742200091891896e-05 0.0000000000000000e+00  -2.6867488466300078e-06 -3.1443978709841601e-05 0.0000000000000000e+00  -2.5079680742697529e-06 -3.1177370410116475e-05 0.0000000000000000e+00  -2.3159238986702426e-06 -3.0941976216189639e-05 0.0000000000000000e+00  -2.1152394162835815e-06 -3.0734387034554790e-05 0.0000000000000000e+00  -1.9034456125632893e-06 -3.0553133315821785e-05 0.0000000000000000e+00  -1.6846358912726942e-06 -3.0396888397903689e-05 0.0000000000000000e+00  -1.4571423944516217e-06 -3.0263363679928120e-05 0.0000000000000000e+00  -1.2243825186493414e-06 -3.0152925608019161e-05 0.0000000000000000e+00  -9.8544698092094153e-07 -3.0062714504288561e-05 0.0000000000000000e+00  -7.4301886739629809e-07 -2.9994372274480466e-05 0.0000000000000000e+00  -4.9691068513310367e-07 -2.9944715335008736e-05 0.0000000000000000e+00  -2.4906584801597998e-07 -2.9916263740980013e-05 0.0000000000000000e+00  -1.8599064274901080e-18 -2.9905765830458113e-05 0.0000000000000000e+00  2.4906584801227019e-07 -2.9916263740979732e-05 0.0000000000000000e+00  4.9691068512937228e-07 -2.9944715335008204e-05 0.0000000000000000e+00  7.4301886739256542e-07 -2.9994372274479656e-05 0.0000000000000000e+00  9.8544698091717731e-07 -3.0062714504287561e-05 0.0000000000000000e+00  1.2243825186455799e-06 -3.0152925608017880e-05 0.0000000000000000e+00  1.4571423944478293e-06 -3.0263363679926579e-05 0.0000000000000000e+00  1.6846358912688948e-06 -3.0396888397901934e-05 0.0000000000000000e+00  1.9034456125594525e-06 -3.0553133315819813e-05 0.0000000000000000e+00  2.1152394162797393e-06 -3.0734387034552682e-05 0.0000000000000000e+00  2.3159238986663682e-06 -3.0941976216187498e-05 0.0000000000000000e+00  2.5079680742658794e-06 -3.1177370410114307e-05 0.0000000000000000e+00  2.6867488466260882e-06 -3.1443978709839359e-05 0.0000000000000000e+00  2.8555618809036029e-06 -3.1742200091889599e-05 0.0000000000000000e+00  3.0095224492968043e-06 -3.2077800939715482e-05 0.0000000000000000e+00  3.1527273602091880e-06 -3.2449861448952869e-05 0.0000000000000000e+00  3.2804409677404534e-06 -3.2866531969051925e-05 0.0000000000000000e+00  3.3974405864079467e-06 -3.3325347378817101e-05 0.0000000000000000e+00  3.4996807303701990e-06 -3.3836425491426041e-05 0.0000000000000000e+00  3.5923505003846983e-06 -3.4395575133722431e-05 0.0000000000000000e+00  3.6726803173165359e-06 -3.5013732899755667e-05 0.0000000000000000e+00  3.7457844873981507e-06 -3.5684824242591625e-05 0.0000000000000000e+00  3.8105434981558386e-06 -3.6418234154545826e-05 0.0000000000000000e+00  3.8711261785258804e-06 -3.7205392648067625e-05 0.0000000000000000e+00  3.9283020445401177e-06 -3.8049858005972017e-05 0.0000000000000000e+00  3.9836100949785287e-06 -3.8937164979310768e-05 0.0000000000000000e+00  -4.5325721285966442e-06 -3.8902291582585098e-05 0.0000000000000000e+00  -4.4477195563645825e-06 -3.8007240408868950e-05 0.0000000000000000e+00  -4.3642808205884543e-06 -3.7165630071809784e-05 0.0000000000000000e+00  -4.2769586309644511e-06 -3.6375971764667415e-05 0.0000000000000000e+00  -4.1827981854773053e-06 -3.5648210039705451e-05 0.0000000000000000e+00  -4.0826222064136417e-06 -3.4975497196195039e-05 0.0000000000000000e+00  -3.9717956158875674e-06 -3.4364144652101276e-05 0.0000000000000000e+00  -3.8528879643115497e-06 -3.3804217741199254e-05 0.0000000000000000e+00  -3.7208544868897942e-06 -3.3300081208140571e-05 0.0000000000000000e+00  -3.5794144321045410e-06 -3.2841410746605076e-05 0.0000000000000000e+00  -3.4237601409265824e-06 -3.2431086159525832e-05 0.0000000000000000e+00  -3.2582985176114047e-06 -3.2059995022146267e-05 0.0000000000000000e+00  -3.0788071345701992e-06 -3.1729700986372722e-05 0.0000000000000000e+00  -2.8899093570252268e-06 -3.1433087144323200e-05 0.0000000000000000e+00  -2.6881330621540817e-06 -3.1170542104726121e-05 0.0000000000000000e+00  -2.4779312254505369e-06 -3.0937184387063695e-05 0.0000000000000000e+00  -2.2566294423009228e-06 -3.0732385363759719e-05 0.0000000000000000e+00  -2.0282424774373110e-06 -3.0553397838545938e-05 0.0000000000000000e+00  -1.7908736327009102e-06 -3.0398753431234505e-05 0.0000000000000000e+00  -1.5479442523729016e-06 -3.0267546773356894e-05 0.0000000000000000e+00  -1.2982867536905157e-06 -3.0157664721515176e-05 0.0000000000000000e+00  -1.0446608369959646e-06 -3.0069665787000048e-05 0.0000000000000000e+00  -7.8657815568466994e-07 -3.0001004626671855e-05 0.0000000000000000e+00  -5.2612455470665699e-07 -2.9953308581579922e-05 0.0000000000000000e+00  -2.6345614372864897e-07 -2.9923833782388477e-05 0.0000000000000000e+00  -1.9311348466413104e-18 -2.9914902579425840e-05 0.0000000000000000e+00  2.6345614372476802e-07 -2.9923833782388196e-05 0.0000000000000000e+00  5.2612455470278160e-07 -2.9953308581579380e-05 0.0000000000000000e+00  7.8657815568076914e-07 -3.0001004626671042e-05 0.0000000000000000e+00  1.0446608369920555e-06 -3.0069665786999052e-05 0.0000000000000000e+00  1.2982867536865880e-06 -3.0157664721513919e-05 0.0000000000000000e+00  1.5479442523689814e-06 -3.0267546773355366e-05 0.0000000000000000e+00  1.7908736326969687e-06 -3.0398753431232780e-05 0.0000000000000000e+00  2.0282424774333774e-06 -3.0553397838543966e-05 0.0000000000000000e+00  2.2566294422969748e-06 -3.0732385363757618e-05 0.0000000000000000e+00  2.4779312254466016e-06 -3.0937184387061560e-05 0.0000000000000000e+00  2.6881330621501112e-06 -3.1170542104723932e-05 0.0000000000000000e+00  2.8899093570212500e-06 -3.1433087144320916e-05 0.0000000000000000e+00  3.0788071345662016e-06 -3.1729700986370425e-05 0.0000000000000000e+00  3.2582985176074181e-06 -3.2059995022143888e-05 0.0000000000000000e+00  3.4237601409225701e-06 -3.2431086159523440e-05 0.0000000000000000e+00  3.5794144321005295e-06 -3.2841410746602739e-05 0.0000000000000000e+00  3.7208544868857649e-06 -3.3300081208138233e-05 0.0000000000000000e+00  3.8528879643075339e-06 -3.3804217741196909e-05 0.0000000000000000e+00  3.9717956158835347e-06 -3.4364144652098898e-05 0.0000000000000000e+00  4.0826222064096166e-06 -3.4975497196192681e-05 0.0000000000000000e+00  4.1827981854732615e-06 -3.5648210039703114e-05 0.0000000000000000e+00  4.2769586309604320e-06 -3.6375971764665213e-05 0.0000000000000000e+00  4.3642808205844267e-06 -3.7165630071807751e-05 0.0000000000000000e+00  4.4477195563605895e-06 -3.8007240408867100e-05 0.0000000000000000e+00  4.5325721285926615e-06 -3.8902291582583316e-05 0.0000000000000000e+00  -5.0824887033722094e-06 -3.8847507270482675e-05 0.0000000000000000e+00  -4.9735063487231371e-06 -3.7950885863334444e-05 0.0000000000000000e+00  -4.8623286144952634e-06 -3.7104867319943000e-05 0.0000000000000000e+00  -4.7475063060750908e-06 -3.6319513970050015e-05 0.0000000000000000e+00  -4.6273914558587991e-06 -3.5590277127909301e-05 0.0000000000000000e+00  -4.4979287763290079e-06 -3.4923751062628253e-05 0.0000000000000000e+00  -4.3614228683093261e-06 -3.4311768138533965e-05 0.0000000000000000e+00  -4.2129275347831286e-06 -3.3758613398389073e-05 0.0000000000000000e+00  -4.0561206748456331e-06 -3.3254481989003834e-05 0.0000000000000000e+00  -3.8860807101903381e-06 -3.2802344011000440e-05 0.0000000000000000e+00  -3.7071501601328638e-06 -3.2392618891311813e-05 0.0000000000000000e+00  -3.5149094132790996e-06 -3.2027267810985028e-05 0.0000000000000000e+00  -3.3139044453075721e-06 -3.1698081094112146e-05 0.0000000000000000e+00  -3.1004440060916208e-06 -3.1406105518214396e-05 0.0000000000000000e+00  -2.8789142327472017e-06 -3.1145055136549840e-05 0.0000000000000000e+00  -2.6464241121634109e-06 -3.0915121188085749e-05 0.0000000000000000e+00  -2.4069467972778683e-06 -3.0712072257774152e-05 0.0000000000000000e+00  -2.1583733370087279e-06 -3.0535321774812692e-05 0.0000000000000000e+00  -1.9041176489745158e-06 -3.0382551186379502e-05 0.0000000000000000e+00  -1.6427924904103877e-06 -3.0252509925327055e-05 0.0000000000000000e+00  -1.3771911954269858e-06 -3.0144496461842094e-05 0.0000000000000000e+00  -1.1065795411409409e-06 -3.0056750701063820e-05 0.0000000000000000e+00  -8.3312480275307422e-07 -2.9989824028766300e-05 0.0000000000000000e+00  -5.5669003387404414e-07 -2.9941642457965835e-05 0.0000000000000000e+00  -2.7883898270465580e-07 -2.9913634229940772e-05 0.0000000000000000e+00  -2.0111055044170248e-18 -2.9903648325043402e-05 0.0000000000000000e+00  2.7883898270064743e-07 -2.9913634229940477e-05 0.0000000000000000e+00  5.5669003387001121e-07 -2.9941642457965276e-05 0.0000000000000000e+00  8.3312480274904795e-07 -2.9989824028765487e-05 0.0000000000000000e+00  1.1065795411368853e-06 -3.0056750701062824e-05 0.0000000000000000e+00  1.3771911954229289e-06 -3.0144496461840854e-05 0.0000000000000000e+00  1.6427924904063207e-06 -3.0252509925325558e-05 0.0000000000000000e+00  1.9041176489704693e-06 -3.0382551186377781e-05 0.0000000000000000e+00  2.1583733370046745e-06 -3.0535321774810761e-05 0.0000000000000000e+00  2.4069467972738500e-06 -3.0712072257772086e-05 0.0000000000000000e+00  2.6464241121593739e-06 -3.0915121188083601e-05 0.0000000000000000e+00  2.8789142327431728e-06 -3.1145055136547645e-05 0.0000000000000000e+00  3.1004440060875766e-06 -3.1406105518212139e-05 0.0000000000000000e+00  3.3139044453035470e-06 -3.1698081094109862e-05 0.0000000000000000e+00  3.5149094132750631e-06 -3.2027267810982663e-05 0.0000000000000000e+00  3.7071501601288565e-06 -3.2392618891309394e-05 0.0000000000000000e+00  3.8860807101863011e-06 -3.2802344010998069e-05 0.0000000000000000e+00  4.0561206748415961e-06 -3.3254481989001490e-05 0.0000000000000000e+00  4.2129275347790840e-06 -3.3758613398386701e-05 0.0000000000000000e+00  4.3614228683053103e-06 -3.4311768138531600e-05 0.0000000000000000e+00  4.4979287763249701e-06 -3.4923751062625847e-05 0.0000000000000000e+00  4.6273914558547765e-06 -3.5590277127906950e-05 0.0000000000000000e+00  4.7475063060710767e-06 -3.6319513970047805e-05 0.0000000000000000e+00  4.8623286144912908e-06 -3.7104867319940947e-05 0.0000000000000000e+00  4.9735063487191755e-06 -3.7950885863332573e-05 0.0000000000000000e+00  5.0824887033682995e-06 -3.8847507270480879e-05 0.0000000000000000e+00  -5.6409827761294665e-06 -3.8778843783392644e-05 0.0000000000000000e+00  -5.5020593193509390e-06 -3.7873582926314723e-05 0.0000000000000000e+00  -5.3655487837598014e-06 -3.7029215403508717e-05 0.0000000000000000e+00  -5.2247225838488028e-06 -3.6241540666279306e-05 0.0000000000000000e+00  -5.0765741256072200e-06 -3.5517609049054441e-05 0.0000000000000000e+00  -4.9221098141415960e-06 -3.4850651251897740e-05 0.0000000000000000e+00  -4.7565182967871871e-06 -3.4245197152825202e-05 0.0000000000000000e+00  -4.5834396285329067e-06 -3.3692223130344803e-05 0.0000000000000000e+00  -4.3977442132061352e-06 -3.3194765806618973e-05 0.0000000000000000e+00  -4.2039491258828462e-06 -3.2743171284470360e-05 0.0000000000000000e+00  -3.9973197138910097e-06 -3.2339586871612732e-05 0.0000000000000000e+00  -3.7825632275551413e-06 -3.1975077311226876e-05 0.0000000000000000e+00  -3.5556731077515589e-06 -3.1651081362837988e-05 0.0000000000000000e+00  -3.3211460161598490e-06 -3.1360199489485665e-05 0.0000000000000000e+00  -3.0758161294394638e-06 -3.1103190707176718e-05 0.0000000000000000e+00  -2.8237208636964565e-06 -3.0874549147456162e-05 0.0000000000000000e+00  -2.5625204830343924e-06 -3.0674360388685716e-05 0.0000000000000000e+00  -2.2956638035640998e-06 -3.0499035682143459e-05 0.0000000000000000e+00  -2.0215597842237650e-06 -3.0348024846342297e-05 0.0000000000000000e+00  -1.7430286603361224e-06 -3.0219463835477202e-05 0.0000000000000000e+00  -1.4591328034719928e-06 -3.0112256115997895e-05 0.0000000000000000e+00  -1.1720805312541799e-06 -3.0025950697670783e-05 0.0000000000000000e+00  -8.8150303008847516e-07 -2.9959050706499586e-05 0.0000000000000000e+00 