<?xml version="1.0"?>
<VTKFile type="UnstructuredGrid"  version="0.1"  >
<UnstructuredGrid>
<Piece  NumberOfPoints="2601" NumberOfCells="5000">
<Points>
<DataArray  type="Float64"  NumberOfComponents="3"  format="ascii">0 0 0  0.0004 0 0  0.0008 0 0  0.0012 0 0  0.0016 0 0  0.002 0 0  0.0024 0 0  0.0028 0 0  0.0032 0 0  0.0036 0 0  0.004 0 0  0.0044 0 0  0.0048 0 0  0.0052 0 0  0.005600000000000001 0 0  0.006 0 0  0.0064 0 0  0.0068 0 0  0.0072 0 0  0.0076 0 0  0.008 0 0  0.008399999999999999 0 0  0.008800000000000001 0 0  0.0092 0 0  0.009599999999999999 0 0  0.01 0 0  0.0104 0 0  0.0108 0 0  0.0112 0 0  0.0116 0 0  0.012 0 0  0.0124 0 0  0.0128 0 0  0.0132 0 0  0.0136 0 0  0.014 0 0  0.0144 0 0  0.0148 0 0  0.0152 0 0  0.0156 0 0  0.016 0 0  0.0164 0 0  0.0168 0 0  0.0172 0 0  0.0176 0 0  0.018 0 0  0.0184 0 0  0.0188 0 0  0.0192 0 0  0.0196 0 0  0.02 0 0  0 0.00024 0  0.0004 0.00024 0  0.0008 0.00024 0  0.0012 0.00024 0  0.0016 0.00024 0  0.002 0.00024 0  0.0024 0.00024 0  0.0028 0.00024 0  0.0032 0.00024 0  0.0036 0.00024 0  0.004 0.00024 0  0.0044 0.00024 0  0.0048 0.00024 0  0.0052 0.00024 0  0.005600000000000001 0.00024 0  0.006 0.00024 0  0.0064 0.00024 0  0.0068 0.00024 0  0.0072 0.00024 0  0.0076 0.00024 0  0.008 0.00024 0  0.008399999999999999 0.00024 0  0.008800000000000001 0.00024 0  0.0092 0.00024 0  0.009599999999999999 0.00024 0  0.01 0.00024 0  0.0104 0.00024 0  0.0108 0.00024 0  0.0112 0.00024 0  0.0116 0.00024 0  0.012 0.00024 0  0.0124 0.00024 0  0.0128 0.00024 0  0.0132 0.00024 0  0.0136 0.00024 0  0.014 0.00024 0  0.0144 0.00024 0  0.0148 0.00024 0  0.0152 0.00024 0  0.0156 0.00024 0  0.016 0.00024 0  0.0164 0.00024 0  0.0168 0.00024 0  0.0172 0.00024 0  0.0176 0.00024 0  0.018 0.00024 0  0.0184 0.00024 0  0.0188 0.00024 0  0.0192 0.00024 0  0.0196 0.00024 0  0.02 0.00024 0  0 0.00048 0  0.0004 0.00048 0  0.0008 0.00048 0  0.0012 0.00048 0  0.0016 0.00048 0  0.002 0.00048 0  0.0024 0.00048 0  0.0028 0.00048 0  0.0032 0.00048 0  0.0036 0.00048 0  0.004 0.00048 0  0.0044 0.00048 0  0.0048 0.00048 0  0.0052 0.00048 0  0.005600000000000001 0.00048 0  0.006 0.00048 0  0.0064 0.00048 0  0.0068 0.00048 0  0.0072 0.00048 0  0.0076 0.00048 0  0.008 0.00048 0  0.008399999999999999 0.00048 0  0.008800000000000001 0.00048 0  0.0092 0.00048 0  0.009599999999999999 0.00048 0  0.01 0.00048 0  0.0104 0.00048 0  0.0108 0.00048 0  0.0112 0.00048 0  0.0116 0.00048 0  0.012 0.00048 0  0.0124 0.00048 0  0.0128 0.00048 0  0.0132 0.00048 0  0.0136 0.00048 0  0.014 0.00048 0  0.0144 0.00048 0  0.0148 0.00048 0  0.0152 0.00048 0  0.0156 0.00048 0  0.016 0.00048 0  0.0164 0.00048 0  0.0168 0.00048 0  0.0172 0.00048 0  0.0176 0.00048 0  0.018 0.00048 0  0.0184 0.00048 0  0.0188 0.00048 0  0.0192 0.00048 0  0.0196 0.00048 0  0.02 0.00048 0  0 0.00072 0  0.0004 0.00072 0  0.0008 0.00072 0  0.0012 0.00072 0  0.0016 0.00072 0  0.002 0.00072 0  0.0024 0.00072 0  0.0028 0.00072 0  0.0032 0.00072 0  0.0036 0.00072 0  0.004 0.00072 0  0.0044 0.00072 0  0.0048 0.00072 0  0.0052 0.00072 0  0.005600000000000001 0.00072 0  0.006 0.00072 0  0.0064 0.00072 0  0.0068 0.00072 0  0.0072 0.00072 0  0.0076 0.00072 0  0.008 0.00072 0  0.008399999999999999 0.00072 0  0.008800000000000001 0.00072 0  0.0092 0.00072 0  0.009599999999999999 0.00072 0  0.01 0.00072 0  0.0104 0.00072 0  0.0108 0.00072 0  0.0112 0.00072 0  0.0116 0.00072 0  0.012 0.00072 0  0.0124 0.00072 0  0.0128 0.00072 0  0.0132 0.00072 0  0.0136 0.00072 0  0.014 0.00072 0  0.0144 0.00072 0  0.0148 0.00072 0  0.0152 0.00072 0  0.0156 0.00072 0  0.016 0.00072 0  0.0164 0.00072 0  0.0168 0.00072 0  0.0172 0.00072 0  0.0176 0.00072 0  0.018 0.00072 0  0.0184 0.00072 0  0.0188 0.00072 0  0.0192 0.00072 0  0.0196 0.00072 0  0.02 0.00072 0  0 0.00096 0  0.0004 0.00096 0  0.0008 0.00096 0  0.0012 0.00096 0  0.0016 0.00096 0  0.002 0.00096 0  0.0024 0.00096 0  0.0028 0.00096 0  0.0032 0.00096 0  0.0036 0.00096 0  0.004 0.00096 0  0.0044 0.00096 0  0.0048 0.00096 0  0.0052 0.00096 0  0.005600000000000001 0.00096 0  0.006 0.00096 0  0.0064 0.00096 0  0.0068 0.00096 0  0.0072 0.00096 0  0.0076 0.00096 0  0.008 0.00096 0  0.008399999999999999 0.00096 0  0.008800000000000001 0.00096 0  0.0092 0.00096 0  0.009599999999999999 0.00096 0  0.01 0.00096 0  0.0104 0.00096 0  0.0108 0.00096 0  0.0112 0.00096 0  0.0116 0.00096 0  0.012 0.00096 0  0.0124 0.00096 0  0.0128 0.00096 0  0.0132 0.00096 0  0.0136 0.00096 0  0.014 0.00096 0  0.0144 0.00096 0  0.0148 0.00096 0  0.0152 0.00096 0  0.0156 0.00096 0  0.016 0.00096 0  0.0164 0.00096 0  0.0168 0.00096 0  0.0172 0.00096 0  0.0176 0.00096 0  0.018 0.00096 0  0.0184 0.00096 0  0.0188 0.00096 0  0.0192 0.00096 0  0.0196 0.00096 0  0.02 0.00096 0  0 0.0012 0  0.0004 0.0012 0  0.0008 0.0012 0  0.0012 0.0012 0  0.0016 0.0012 0  0.002 0.0012 0  0.0024 0.0012 0  0.0028 0.0012 0  0.0032 0.0012 0  0.0036 0.0012 0  0.004 0.0012 0  0.0044 0.0012 0  0.0048 0.0012 0  0.0052 0.0012 0  0.005600000000000001 0.0012 0  0.006 0.0012 0  0.0064 0.0012 0  0.0068 0.0012 0  0.0072 0.0012 0  0.0076 0.0012 0  0.008 0.0012 0  0.008399999999999999 0.0012 0  0.008800000000000001 0.0012 0  0.0092 0.0012 0  0.009599999999999999 0.0012 0  0.01 0.0012 0  0.0104 0.0012 0  0.0108 0.0012 0  0.0112 0.0012 0  0.0116 0.0012 0  0.012 0.0012 0  0.0124 0.0012 0  0.0128 0.0012 0  0.0132 0.0012 0  0.0136 0.0012 0  0.014 0.0012 0  0.0144 0.0012 0  0.0148 0.0012 0  0.0152 0.0012 0  0.0156 0.0012 0  0.016 0.0012 0  0.0164 0.0012 0  0.0168 0.0012 0  0.0172 0.0012 0  0.0176 0.0012 0  0.018 0.0012 0  0.0184 0.0012 0  0.0188 0.0012 0  0.0192 0.0012 0  0.0196 0.0012 0  0.02 0.0012 0  0 0.00144 0  0.0004 0.00144 0  0.0008 0.00144 0  0.0012 0.00144 0  0.0016 0.00144 0  0.002 0.00144 0  0.0024 0.00144 0  0.0028 0.00144 0  0.0032 0.00144 0  0.0036 0.00144 0  0.004 0.00144 0  0.0044 0.00144 0  0.0048 0.00144 0  0.0052 0.00144 0  0.005600000000000001 0.00144 0  0.006 0.00144 0  0.0064 0.00144 0  0.0068 0.00144 0  0.0072 0.00144 0  0.0076 0.00144 0  0.008 0.00144 0  0.008399999999999999 0.00144 0  0.008800000000000001 0.00144 0  0.0092 0.00144 0  0.009599999999999999 0.00144 0  0.01 0.00144 0  0.0104 0.00144 0  0.0108 0.00144 0  0.0112 0.00144 0  0.0116 0.00144 0  0.012 0.00144 0  0.0124 0.00144 0  0.0128 0.00144 0  0.0132 0.00144 0  0.0136 0.00144 0  0.014 0.00144 0  0.0144 0.00144 0  0.0148 0.00144 0  0.0152 0.00144 0  0.0156 0.00144 0  0.016 0.00144 0  0.0164 0.00144 0  0.0168 0.00144 0  0.0172 0.00144 0  0.0176 0.00144 0  0.018 0.00144 0  0.0184 0.00144 0  0.0188 0.00144 0  0.0192 0.00144 0  0.0196 0.00144 0  0.02 0.00144 0  0 0.00168 0  0.0004 0.00168 0  0.0008 0.00168 0  0.0012 0.00168 0  0.0016 0.00168 0  0.002 0.00168 0  0.0024 0.00168 0  0.0028 0.00168 0  0.0032 0.00168 0  0.0036 0.00168 0  0.004 0.00168 0  0.0044 0.00168 0  0.0048 0.00168 0  0.0052 0.00168 0  0.005600000000000001 0.00168 0  0.006 0.00168 0  0.0064 0.00168 0  0.0068 0.00168 0  0.0072 0.00168 0  0.0076 0.00168 0  0.008 0.00168 0  0.008399999999999999 0.00168 0  0.008800000000000001 0.00168 0  0.0092 0.00168 0  0.009599999999999999 0.00168 0  0.01 0.00168 0  0.0104 0.00168 0  0.0108 0.00168 0  0.0112 0.00168 0  0.0116 0.00168 0  0.012 0.00168 0  0.0124 0.00168 0  0.0128 0.00168 0  0.0132 0.00168 0  0.0136 0.00168 0  0.014 0.00168 0  0.0144 0.00168 0  0.0148 0.00168 0  0.0152 0.00168 0  0.0156 0.00168 0  0.016 0.00168 0  0.0164 0.00168 0  0.0168 0.00168 0  0.0172 0.00168 0  0.0176 0.00168 0  0.018 0.00168 0  0.0184 0.00168 0  0.0188 0.00168 0  0.0192 0.00168 0  0.0196 0.00168 0  0.02 0.00168 0  0 0.00192 0  0.0004 0.00192 0  0.0008 0.00192 0  0.0012 0.00192 0  0.0016 0.00192 0  0.002 0.00192 0  0.0024 0.00192 0  0.0028 0.00192 0  0.0032 0.00192 0  0.0036 0.00192 0  0.004 0.00192 0  0.0044 0.00192 0  0.0048 0.00192 0  0.0052 0.00192 0  0.005600000000000001 0.00192 0  0.006 0.00192 0  0.0064 0.00192 0  0.0068 0.00192 0  0.0072 0.00192 0  0.0076 0.00192 0  0.008 0.00192 0  0.008399999999999999 0.00192 0  0.008800000000000001 0.00192 0  0.0092 0.00192 0  0.009599999999999999 0.00192 0  0.01 0.00192 0  0.0104 0.00192 0  0.0108 0.00192 0  0.0112 0.00192 0  0.0116 0.00192 0  0.012 0.00192 0  0.0124 0.00192 0  0.0128 0.00192 0  0.0132 0.00192 0  0.0136 0.00192 0  0.014 0.00192 0  0.0144 0.00192 0  0.0148 0.00192 0  0.0152 0.00192 0  0.0156 0.00192 0  0.016 0.00192 0  0.0164 0.00192 0  0.0168 0.00192 0  0.0172 0.00192 0  0.0176 0.00192 0  0.018 0.00192 0  0.0184 0.00192 0  0.0188 0.00192 0  0.0192 0.00192 0  0.0196 0.00192 0  0.02 0.00192 0  0 0.00216 0  0.0004 0.00216 0  0.0008 0.00216 0  0.0012 0.00216 0  0.0016 0.00216 0  0.002 0.00216 0  0.0024 0.00216 0  0.0028 0.00216 0  0.0032 0.00216 0  0.0036 0.00216 0  0.004 0.00216 0  0.0044 0.00216 0  0.0048 0.00216 0  0.0052 0.00216 0  0.005600000000000001 0.00216 0  0.006 0.00216 0  0.0064 0.00216 0  0.0068 0.00216 0  0.0072 0.00216 0  0.0076 0.00216 0  0.008 0.00216 0  0.008399999999999999 0.00216 0  0.008800000000000001 0.00216 0  0.0092 0.00216 0  0.009599999999999999 0.00216 0  0.01 0.00216 0  0.0104 0.00216 0  0.0108 0.00216 0  0.0112 0.00216 0  0.0116 0.00216 0  0.012 0.00216 0  0.0124 0.00216 0  0.0128 0.00216 0  0.0132 0.00216 0  0.0136 0.00216 0  0.014 0.00216 0  0.0144 0.00216 0  0.0148 0.00216 0  0.0152 0.00216 0  0.0156 0.00216 0  0.016 0.00216 0  0.0164 0.00216 0  0.0168 0.00216 0  0.0172 0.00216 0  0.0176 0.00216 0  0.018 0.00216 0  0.0184 0.00216 0  0.0188 0.00216 0  0.0192 0.00216 0  0.0196 0.00216 0  0.02 0.00216 0  0 0.0024 0  0.0004 0.0024 0  0.0008 0.0024 0  0.0012 0.0024 0  0.0016 0.0024 0  0.002 0.0024 0  0.0024 0.0024 0  0.0028 0.0024 0  0.0032 0.0024 0  0.0036 0.0024 0  0.004 0.0024 0  0.0044 0.0024 0  0.0048 0.0024 0  0.0052 0.0024 0  0.005600000000000001 0.0024 0  0.006 0.0024 0  0.0064 0.0024 0  0.0068 0.0024 0  0.0072 0.0024 0  0.0076 0.0024 0  0.008 0.0024 0  0.008399999999999999 0.0024 0  0.008800000000000001 0.0024 0  0.0092 0.0024 0  0.009599999999999999 0.0024 0  0.01 0.0024 0  0.0104 0.0024 0  0.0108 0.0024 0  0.0112 0.0024 0  0.0116 0.0024 0  0.012 0.0024
[...]
<PointData  Scalars="VMS [Pa]"> 
<DataArray  type="Float64"  Name="VMS [Pa]"  format="ascii">1.1556274565569203e+07  5.8626628952016616e+06  1.0327464535418781e+07  9.2542429776217230e+06  1.2992660428808387e+07  3.3324778955681645e+06  2.0107777234313466e+07  8.4441799293276444e+06  3.2355031270295896e+07  2.3444931492715225e+07  4.7020871367442034e+07  4.0605830922587655e+07  6.2081370482889317e+07  5.7240563906053431e+07  7.6079767038616702e+07  7.2022919574164137e+07  8.8168781528594598e+07  8.4285890425583422e+07  9.7928483182295710e+07  9.3770785522972196e+07  1.0521147831491563e+08  1.0045234346214952e+08  1.1001779301543987e+08  1.0440559682877803e+08  1.1239998009948446e+08  1.0571225497318932e+08  1.1239998009948137e+08  1.0440559682876179e+08  1.1001779301542696e+08  1.0045234346214953e+08  1.0521147831490701e+08  9.3770785522944182e+07  9.7928483182275102e+07  8.4285890425527886e+07  8.8168781528568774e+07  7.2022919574144527e+07  7.6079767038607508e+07  5.7240563906043828e+07  6.2081370482871152e+07  4.0605830922558516e+07  4.7020871367424361e+07  2.3444931492702257e+07  3.2355031270293608e+07  8.4441799293244202e+06  2.0107777234305199e+07  3.3324778955746167e+06  1.2992660428802291e+07  9.2542429776375126e+06  1.0327464535421364e+07  5.8626628951500589e+06  1.1556274565558594e+07  4.3882328403062131e+06  9.2754523595867231e+06  1.1297139888282912e+07  1.0609019951415902e+07  1.1643826813656367e+07  1.5170067565942781e+07  1.6946318104784429e+07  2.4438447807754647e+07  2.8408219781703118e+07  3.7221077030115284e+07  4.2053268486583151e+07  5.1233844570777841e+07  5.6069674465657912e+07  6.4880121883610569e+07  6.9188195488399640e+07  7.7141804777518153e+07  8.0602364264676079e+07  8.7433330475830838e+07  8.9878183435972512e+07  9.5479012228775159e+07  9.6837275238551170e+07  1.0119709615257889e+08  1.0144807868112585e+08  1.0460179735841642e+08  1.0373895376655604e+08  1.0573087770120890e+08  1.0373895376655520e+08  1.0460179735840714e+08  1.0144807868110304e+08  1.0119709615257472e+08  9.6837275238554716e+07  9.5479012228761390e+07  8.9878183435941905e+07  8.7433330475809738e+07  8.0602364264663771e+07  7.7141804777500227e+07  6.9188195488388240e+07  6.4880121883592144e+07  5.6069674465632550e+07  5.1233844570757799e+07  4.2053268486578338e+07  3.7221077030102834e+07  2.8408219781691849e+07  2.4438447807750966e+07  1.6946318104785617e+07  1.5170067565932605e+07  1.1643826813669559e+07  1.0609019951415665e+07  1.1297139888297135e+07  9.2754523595976792e+06  4.3882328403195199e+06  1.0675276344900381e+07  9.7178985847690869e+06  8.8628485482862312e+06  1.3129506802079391e+07  1.2874026479800189e+07  1.7544346089540057e+07  2.1707727931016769e+07  2.7301480413690109e+07  3.2797101731998555e+07  3.8535194574925661e+07  4.4761023927038908e+07  5.0403182709820919e+07  5.6750090457565144e+07  6.1982669125060119e+07  6.7952583784447730e+07  7.2504261066097289e+07  7.7754704557525650e+07  8.1446663676503822e+07  8.5778724042190507e+07  8.8517166641081542e+07  9.1839601508681893e+07  9.3588000502031788e+07  9.5876677215039670e+07  9.6626439744458869e+07  9.7889242396096215e+07  9.7637327250771105e+07  9.7889242396092445e+07  9.6626439744452894e+07  9.5876677215028375e+07  9.3588000502028510e+07  9.1839601508685291e+07  8.8517166641080141e+07  8.5778724042181924e+07  8.1446663676501095e+07  7.7754704557510346e+07  7.2504261066087067e+07  6.7952583784427926e+07  6.1982669125021316e+07  5.6750090457546674e+07  5.0403182709811166e+07  4.4761023927017227e+07  3.8535194574922457e+07  3.2797101731980495e+07  2.7301480413669899e+07  2.1707727931009293e+07  1.7544346089533284e+07  1.2874026479790071e+07  1.3129506802086480e+07  8.8628485482878238e+06  9.7178985847288389e+06  1.0675276344906993e+07  1.0127660796227692e+07  9.0760727988618650e+06  1.3012902336250469e+07  1.0879949592798270e+07  1.6855438348716646e+07  2.0141869771324180e+07  2.6246450075072724e+07  3.1029839386230629e+07  3.6456468000192866e+07  4.1744620225028716e+07  4.6738319596980266e+07  5.2158683427015260e+07  5.6723060986002207e+07  6.1971979684980981e+07  6.6004446305639140e+07  7.0803725812641099e+07  7.4181615506517187e+07  7.8320200779699191e+07  8.0946643364708543e+07  8.4293755799515501e+07  8.6109398624183998e+07  8.8601341768225133e+07  8.9576417086567834e+07  9.1193360209546700e+07  9.1313739069851741e+07  9.2057669010446474e+07  9.1313739069846332e+07  9.1193360209537446e+07  8.9576417086561084e+07  8.8601341768219456e+07  8.6109398624194548e+07  8.4293755799520284e+07  8.0946643364713877e+07  7.8320200779705554e+07  7.4181615506524324e+07  7.0803725812624380e+07  6.6004446305613533e+07  6.1971979684964508e+07  5.6723060986000165e+07  5.2158683427018315e+07  4.6738319596956886e+07  4.1744620225008465e+07  3.6456468000186674e+07  3.1029839386224002e+07  2.6246450075069405e+07  2.0141869771315280e+07  1.6855438348711435e+07  1.0879949592778381e+07  1.3012902336256456e+07  9.0760727988744695e+06  1.0127660796242459e+07  9.1061187911702674e+06  1.2655587375361364e+07  9.5445500999187194e+06  1.5812194739215752e+07  1.7988729650577530e+07  2.4781646326291602e+07  2.9590690090872742e+07  3.5168980522301503e+07  4.0188004598106794e+07  4.4828708122275628e+07  4.9635526275552444e+07  5.3576696206127793e+07  5.8109725020676337e+07  6.1486078960541174e+07  6.5666132951562211e+07  6.8509939977816910e+07  7.2220667377513930e+07  7.4504339263849571e+07  7.7634431357061297e+07  7.9312010900644213e+07  8.1782784567818344e+07  8.2813079174617305e+07  8.4582818707550362e+07  8.4935888757672086e+07  8.5991200295967102e+07  8.5646624453478977e+07  8.5991200295961440e+07  8.4935888757663384e+07  8.4582818707546979e+07  8.2813079174607217e+07  8.1782784567822129e+07  7.9312010900664613e+07  7.7634431357068583e+07  7.4504339263873130e+07  7.2220667377523825e+07  6.8509939977797166e+07  6.5666132951560594e+07  6.1486078960546546e+07  5.8109725020678945e+07  5.3576696206139468e+07  4.9635526275539696e+07  4.4828708122237369e+07  4.0188004598095179e+07  3.5168980522297688e+07  2.9590690090880129e+07  2.4781646326283783e+07  1.7988729650550667e+07  1.5812194739200113e+07  9.5445500999072399e+06  1.2655587375321630e+07  9.1061187911770530e+06  1.3914192347994242e+07  8.6748761403089929e+06  1.5237019282069148e+07  1.5923168798139654e+07  2.2854294525029302e+07  2.7815326304786798e+07  3.3819031626946732e+07  3.9088565879804403e+07  4.3821805239840396e+07  4.8493329137023032e+07  5.2121208258330911e+07  5.6181939997937344e+07  5.8988909042220071e+07  6.2568136472705781e+07  6.4777358345862746e+07  6.7944612778066516e+07  6.9673985646912187e+07  7.2422664906963721e+07  7.3706188245455593e+07  7.5992830939704269e+07  7.6818530774169832e+07  7.8599174994261712e+07  7.8939075137696400e+07  8.0186518864458621e+07  8.0013137223721147e+07  8.0719540128458858e+07  8.0013137223713756e+07  8.0186518864454627e+07  7.8939075137704834e+07  7.8599174994259313e+07  7.6818530774165437e+07  7.5992830939716637e+07  7.3706188245461434e+07  7.2422664906977788e+07  6.9673985646926478e+07  6.7944612778064281e+07  6.4777358345870383e+07  6.2568136472698696e+07  5.8988909042210691e+07  5.6181939997946963e+07  5.2121208258334473e+07  4.8493329136998624e+07  4.3821805239817359e+07  3.9088565879798859e+07  3.3819031626951776e+07  2.7815326304789126e+07  2.2854294525011003e+07  1.5923168798108945e+07  1.5237019282063920e+07  8.6748761403111089e+06  1.3914192347995598e+07  7.5360614844225291e+06  1.5727258062902663e+07  1.3830579556360163e+07  2.0996266143383782e+07  2.5718136013268217e+07  3.2094250068668552e+07  3.7761046325710982e+07  4.2894842773354918e+07  4.7832992774501570e+07  5.1539333247571103e+07  5.5480406823749192e+07  5.8001955428738669e+07  6.1141378069488779e+07  6.2826335483456291e+07  6.5417339399326317e+07  6.6549057657953151e+07  6.8758327210336328e+07  6.9506374514417991e+07  7.1398758595056444e+07  7.1834131114168227e+07  7.3410514351836056e+07  7.3542740811285108e+07  7.4782200057916269e+07  7.4593714901778400e+07  7.5479784936097264e+07  7.4948955018190786e+07  7.5479784936094537e+07  7.4593714901769802e+07  7.4782200057909146e+07  7.3542740811279655e+07  7.3410514351839930e+07  7.1834131114185899e+07  7.1398758595078260e+07  6.9506374514448255e+07  6.8758327210349053e+07  6.6549057657950453e+07  6.5417339399323247e+07  6.2826335483455308e+07  6.1141378069482923e+07  5.8001955428751171e+07  5.5480406823746361e+07  5.1539333247548215e+07  4.7832992774479732e+07  4.2894842773350455e+07  3.7761046325723298e+07  3.2094250068671007e+07  2.5718136013231192e+07  2.0996266143356051e+07  1.3830579556320656e+07  1.5727258062887587e+07  7.5360614844269855e+06  1.6525561202759892e+07  1.0464454518528359e+07  1.9503831468758527e+07  2.3533123215049330e+07  3.0205706291906729e+07  3.6069973747751743e+07  4.1679905983634651e+07  4.7086433814613931e+07  5.1160652380291693e+07  5.5339587754016481e+07  5.7901054312157750e+07  6.0900663630873822e+07  6.2290342405684240e+07  6.4442022832472257e+07  6.5059042519102700e+07  6.6698099717861503e+07  6.6860387259579264e+07  6.8214231280273646e+07  6.8118448738176882e+07  6.9295889122584343e+07  6.9033623249007404e+07  7.0063242691209584e+07  6.9658612219260558e+07  7.0534616635260656e+07  6.9981010812173784e+07  7.0694807036674201e+07  6.9981010812178120e+07  7.0534616635260016e+07  6.9658612219254479e+07  7.0063242691208884e+07  6.9033623249015331e+07  6.9295889122602805e+07  6.8118448738215432e+07  6.8214231280304655e+07  6.6860387259600453e+07  6.6698099717865020e+07  6.5059042519098476e+07  6.4442022832474254e+07  6.2290342405681811e+07  6.0900663630887464e+07  5.7901054312159263e+07  5.5339587754002884e+07  5.1160652380272299e+07  4.7086433814611606e+07  4.1679905983643822e+07  3.6069973747749127e+07  3.0205706291874874e+07  2.3533123214999244e+07  1.9503831468710497e+07  1.0464454518511040e+07  1.6525561202754425e+07  7.7267413184630107e+06  1.9152421350174513e+07  2.0706735972301338e+07  2.8400190733485907e+07  3.4068742680947639e+07  4.0185139655997835e+07  4.6008921847040489e+07  5.0588388131810449e+07  5.5238905819461465e+07  5.8106701593812533e+07  6.1285399805331819e+07  6.2652329389317214e+07  6.4615371237943150e+07  6.4903199656844124e+07  6.6076464964179084e+07  6.5714812754316851e+07  6.6485172361937597e+07  6.5805154406378314e+07  6.6434929728305914e+07  6.5643133576792449e+07  6.6266321712320738e+07  6.5465175274199605e+07  6.6126850195852891e+07  6.5352793593601376e+07  6.6056301267815001e+07  6.5316379357324719e+07  6.6056301267819889e+07  6.5352793593604989e+07  6.6126850195854783e+07  6.5465175274195269e+07  6.6266321712334596e+07  6.5643133576819330e+07  6.6434929728333399e+07  6.5805154406425036e+07  6.6485172361970335e+07  6.5714812754332393e+07  6.6076464964191109e+07  6.4903199656857908e+07  6.4615371237943262e+07  6.2652329389326468e+07  6.1285399805353075e+07  5.8106701593818881e+07  5.5238905819452427e+07  5.0588388131814681e+07  4.6008921847058073e+07  4.0185139655995212e+07  3.4068742680909730e+07  2.8400190733448625e+07  2.0706735972263753e+07  1.9152421350159436e+07  7.7267413184708999e+06  1.8919653821668055e+07  1.5570104880538354e+07  2.6748226000129327e+07  3.1548173965241570e+07  3.8548314953054771e+07  4.4547234284856841e+07  4.9706028641223870e+07  5.4888198406042412e+07  5.8228873106910631e+07  6.1834552602350235e+07  6.3421614712282315e+07  6.5480697100937635e+07  6.5668075060861334e+07  6.6584513827659592e+07  6.5847145179277100e+07  6.6109015314281106e+07  6.4885853899877578e+07  6.4908006403662696e+07  6.3526908403522275e+07  6.3588739944931671e+07  6.2255854866530173e+07  6.2504328435909033e+07  6.1329424037682846e+07  6.1817954894577786e+07  6.0851736223600551e+07  6.1585476087246142e+07  6.0851736223616123e+07  6.1817954894584537e+07  6.1329424037685335e+07  6.2504328435914844e+07  6.2255854866543107e+07  6.3588739944961429e+07  6.3526908403559156e+07  6.4908006403704971e+07  6.4885853899915814e+07  6.6109015314289860e+07  6.5847145179286145e+07  6.6584513827673465e+07  6.5668075060864508e+07  6.5480697100956641e+07  6.3421614712304808e+07  6.1834552602365613e+07  5.8228873106915236e+07  5.4888198406043872e+07  4.9706028641234130e+07  4.4547234284855016e+07  3.8548314953019060e+07  3.1548173965198509e+07  2.6748226000106137e+07  1.5570104880513458e+07  1.8919653821641039e+07  1.2564850664965333e+07  2.5337663987758022e+07  2.8096552242621329e+07  3.6742585431738555e+07  4.2624387534456469e+07  4.8538355437873609e+07  5.4165056564049765e+07  5.8076289950155467e+07  6.2242810537095062e+07  6.4224454276357695e+07  6.6628808153599598e+07  6.6931373555778615e+07  6.7842957857267722e+07  6.6919259408886597e+07  6.6844077849412717e+07  6.5193578358612813e+07  6.4654989105713695e+07  6.2707254516720518e+07  6.2130727123623200e+07  6.0199202656821117e+07  5.9870077172241092e+07  5.8156523825424388e+07  5.8226827481605284e+07  5.6850659645746082e+07  5.7373494663828604e+07  5.6404315013031863e+07  5.7373494663840555e+07  5.6850659645762779e+07  5.8226827481608436e+07  5.8156523825432591e+07  5.9870077172259144e+07  6.0199202656854242e+07  6.2130727123656198e+07  6.2707254516763851e+07  6.4654989105757147e+07  6.5193578358630963e+07  6.6844077849425219e+07  6.6919259408898115e+07  6.7842957857269928e+07  6.6931373555788375e+07  6.6628808153627276e+07  6.4224454276373707e+07  6.2242810537100688e+07  5.8076289950152718e+07  5.4165056564058810e+07  4.8538355437853843e+07  4.2624387534411974e+07  3.6742585431710519e+07  2.8096552242591109e+07  2.5337663987731710e+07  1.2564850664954387e+07  2.4153167437217824e+07  2.2488175911995512e+07  3.4910494341124713e+07  3.9870997925621070e+07  4.7104099496467531e+07  5.2973574800523438e+07  5.7594769864865340e+07  6.2338910834554411e+07  6.4833384121469364e+07  6.7757930634361550e+07  6.8347165393343896e+07  6.9493108491183847e+07  6.8571144975445852e+07  6.8378180115223899e+07  6.6455848110024735e+07  6.5493361818825655e+07  6.3068533823828809e+07  6.1873411080316179e+07  5.9351659713952795e+07  5.8348869609963708e+07  5.6023813697079010e+07  5.5498952313370496e+07  5.3570654574898563e+07  5.3673828228882797e+07  5.2279008766492777e+07  5.3048381046063565e+07  5.2279008766506597e+07  5.3673828228895381e+07  5.3570654574895300e+07  5.5498952313380264e+07  5.6023813697115242e+07  5.8348869610001609e+07  5.9351659713989861e+07  6.1873411080354951e+07  6.3068533823875986e+07  6.5493361818840295e+07  6.6455848110027589e+07  6.8378180115236163e+07  6.8571144975458369e+07  6.9493108491192192e+07  6.8347165393361434e+07  6.7757930634372413e+07  6.4833384121469624e+07  6.2338910834559783e+07  5.7594769864862941e+07  5.2973574800496504e+07  4.7104099496421546e+07  3.9870997925594717e+07  3.4910494341102459e+07  2.2488175911973689e+07  2.4153167437203735e+07  2.0779126035454497e+07  3.3416756306896582e+07  3.6140749098457590e+07  4.5349317205197006e+07  5.1160100728508882e+07  5.6764827114037037e+07  6.2015447072546020e+07  6.5136067156720206e+07  6.8673359792411894e+07  6.9674489227944419e+07  7.1249092647800788e+07  7.0487707366096407e+07  7.0399013595011622e+07  6.8364622824688822e+07  6.7166244478424951e+07  6.4390370061418183e+07  6.2682642736064792e+07  5.9639590197700508e+07  5.7957371112084001e+07  5.5019071969367504e+07  5.3782262248983227e+07  5.1223460396998674e+07  5.0715542902609922e+07  4.8744698367413938e+07  4.9101764637411878e+07  4.7884010970879950e+07  4.9101764637422614e+07  4.8744698367424257e+07  5.0715542902616873e+07  5.1223460397004470e+07  5.3782262249004833e+07  5.5019071969402298e+07  5.7957371112121224e+07  5.9639590197741479e+07  6.2682642736104131e+07  6.4390370061438248e+07  6.7166244478437364e+07  6.8364622824694887e+07  7.0399013595015064e+07  7.0487707366108537e+07  7.1249092647819534e+07  6.9674489227951437e+07  6.8673359792421520e+07  6.5136067156724162e+07  6.2015447072551772e+07  5.6764827114014655e+07  5.1160100728471860e+07  4.5349317205176339e+07  3.6140749098419495e+07  3.3416756306865633e+07  2.0779126035450503e+07  3.3174750040053319e+07  3.1145435902888849e+07  4.3675804487029545e+07  4.8413667645466320e+07  5.5571999092393123e+07  6.1140069919602394e+07  6.5080588643539257e+07  6.9246363239526927e+07  7.0767449325792968e+07  7.2908436846655965e+07  7.2430937263701290e+07  7.2643081985873014e+07  7.0637443135286227e+07  6.9403199003472537e+07  6.6409428086272366e+07  6.4347972113314502e+07  6.0886233457956672e+07  5.8603140537396364e+07  5.5107259734406933e+07  5.3127297430295788e+07  4.9931512072628498e+07  4.8671383417180963e+07  4.6040348150452234e+07  4.5777560619146019e+07  4.3946719111794494e+07  4.4776048942863710e+07  4.3946719111815304e+07  4.5777560619164251e+07  4.6040348150477171e+07  4.8671383417190559e+07  4.9931512072645761e+07  5.3127297430333018e+07  5.5107259734451897e+07  5.8603140537445627e+07  6.0886233457991064e+07  6.4347972113329381e+07  6.6409428086287044e+07  6.9403199003479376e+07  7.0637443135296419e+07  7.2643081985888451e+07  7.2430937263712421e+07  7.2908436846661866e+07  7.0767449325803563e+07  6.9246363239555791e+07  6.5080588643540286e+07  6.1140069919559307e+07  5.5571999092353433e+07  4.8413667645457529e+07  4.3675804487004049e+07  3.1145435902871083e+07  3.3174750040055834e+07  3.1200415598327115e+07  4.2974608809593178e+07  4.4932675210134156e+07  5.4097632554038510e+07  5.9566462763478354e+07  6.4632164280529588e+07  6.9365900542573527e+07  7.1542300524264708e+07  7.4332257257988542e+07  7.4239187024211705e+07  7.4912444195684984e+07  7.3048389192797825e+07  7.1965524471714124e+07  6.8873470258715764e+07  6.6634827333720393e+07  6.2863931693930343e+07  6.0113749880637638e+07  5.6146617344452821e+07  5.3478184704945453e+07  4.9696502009319983e+07  4.7625466811639257e+07  4.4328243664106891e+07  4.3274760842278369e+07  4.0736332581152968e+07  4.0955785412276380e+07  3.9464843349380627e+07  4.0955785412290961e+07  4.0736332581182919e+07  4.3274760842303522e+07  4.4328243664119214e+07  4.7625466811656088e+07  4.9696502009356670e+07  5.3478184704975732e+07  5.6146617344495468e+07  6.0113749880681507e+07  6.2863931693943806e+07  6.6634827333735511e+07  6.8873470258727133e+07  7.1965524471710369e+07  7.3048389192808822e+07  7.4912444195706233e+07  7.4239187024224460e+07  7.4332257258001447e+07  7.1542300524281368e+07  6.9365900542583957e+07  6.4632164280497275e+07  5.9566462763440110e+07  5.4097632554022156e+07  4.4932675210089162e+07  4.2974608809567563e+07  3.1200415598341119e+07  4.5366756795754246e+07  4.1450358008510381e+07  5.3076367237548903e+07  5.7175052621335983e+07  6.3832032339208834e+07  6.8905644182163939e+07  7.1950262490862563e+07  7.5411753360601857e+07  7.5809180272557020e+07  7.7066381105399117e+07  7.5433799445578441e+07  7.4666731002660364e+07  7.1573252737182140e+07  6.9328094251252726e+07  6.5346216789317720e+07  6.2283607574430913e+07  5.7936426927056327e+07  5.4693704959119849e+07  5.0406013114016540e+07  4.7556783974161975e+07  4.3651498555917084e+07  4.1713811573405430e+07  3.8466138534613639e+07  3.7868594970147640e+07  3.5599045000630282e+07  3.6525308962510899e+07  3.5599045000641279e+07  3.7868594970172703e+07  3.8466138534650251e+07  4.1713811573422462e+07  4.3651498555937298e+07  4.7556783974195093e+07  5.0406013114042461e+07  5.4693704959162608e+07  5.7936426927095070e+07  6.2283607574436963e+07  6.5346216789325655e+07  6.9328094251259968e+07  7.1573252737186253e+07  7.4666731002679050e+07  7.5433799445600808e+07  7.7066381105404392e+07  7.5809180272565305e+07  7.5411753360629231e+07  7.1950262490861505e+07  6.8905644182117641e+07  6.3832032339190260e+07  5.7175052621333055e+07  5.3076367237517186e+07  4.1450358008491091e+07  4.5366756795750096e+07  4.3459327135356255e+07  5.4009667525344864e+07  5.4539065728296906e+07  6.2990128536730692e+07  6.7797864930300727e+07  7.1989292073995888e+07  7.6047800307291090e+07  7.7076252168239638e+07  7.9001129118908837e+07  7.7682122032075450e+07  7.7371889151416242e+07  7.4351538158330277e+07  7.2255375946275815e+07  6.814036508