<?xml version="1.0"?>
<VTKFile type="UnstructuredGrid"  version="0.1"  >
<UnstructuredGrid>
<Piece  NumberOfPoints="13994" NumberOfCells="27604">
<Points>
<DataArray  type="Float64"  NumberOfComponents="3"  format="ascii">0 0 0  0 0.002 0  0 0.012 0  0.02 0.012 0  0.02 0.002 0  0.02 0 0  0 0.00018991218723181 0  0 0.0003733069980565314 0  0 0.0005291058521180011 0  0 0.0006498368539013445 0  0 0.0007536755098046806 0  0 0.0008517785356707968 0  0 0.0009480373746127394 0  0 0.001043725399826676 0  0 0.001139352859843888 0  0 0.001234980319861256 0  0 0.001330607779878751 0  0 0.001426235239895836 0  0 0.001521862699913337 0  0 0.001617490159930668 0  0 0.001713117619947918 0  0 0.001808745079965419 0  0 0.00190437253998255 0  0 0.002099315255484767 0  0 0.00219863051096945 0  0 0.002297945766454132 0  0 0.002397261021938822 0  0 0.002496576277423643 0  0 0.002595891532908487 0  0 0.002695206788393201 0  0 0.002794522043877884 0  0 0.002893837299362567 0  0 0.002993152554847297 0  0 0.003092681927103184 0  0 0.003193251726535867 0  0 0.003297217623563905 0  0 0.003412055643439157 0  0 0.003556206383341719 0  0 0.00373832862847297 0  0 0.003934412277764292 0  0 0.004132269451364158 0  0 0.004330165071839649 0  0 0.004528060692314851 0  0 0.004725956312789485 0  0 0.004923851933264119 0  0 0.005121747553738754 0  0 0.005319643174213387 0  0 0.005517538794688026 0  0 0.005715434415163353 0  0 0.00591333003563883 0  0 0.006111225656113617 0  0 0.006309121276588279 0  0 0.006507016897063628 0  0 0.006704912517539083 0  0 0.006902808138013848 0  0 0.007100703758489355 0  0 0.007298599378965707 0  0 0.00749649499944143 0  0 0.007694390619917074 0  0 0.007892286240393405 0  0 0.008090181860869756 0  0 0.008288077481346107 0  0 0.008485973101822112 0  0 0.008683868722297605 0  0 0.008881764342773803 0  0 0.009079659963250154 0  0 0.009277555583726452 0  0 0.009475451204201943 0  0 0.009673346824677437 0  0 0.009871242445153522 0  0 0.01006909055712404 0  0 0.01026501958268966 0  0 0.01044620416271123 0  0 0.01058894488656577 0  0 0.0107031139712953 0  0 0.0108068497950327 0  0 0.01090734303176106 0  0 0.01100684744514782 0  0 0.01110616270063268 0  0 0.01120547795611743 0  0 0.0113047932116027 0  0 0.01140410846708803 0  0 0.01150342372257336 0  0 0.01160273897805869 0  0 0.01170205423354402 0  0 0.01180136948902934 0  0 0.01190068474451467 0  9.978975395281022e-05 0.012 0  0.0001995795079056199 0.012 0  0.0002993692618584289 0.012 0  0.0003991590158112439 0.012 0  0.0004989487697640555 0.012 0  0.0005987385237168579 0.012 0  0.0006985282776696451 0.012 0  0.0007983180316224271 0.012 0  0.000898107785575209 0.012 0  0.0009978975395279867 0.012 0  0.001097903761155907 0.012 0  0.00119897444176409 0.012 0  0.001303552401813303 0.012 0  0.001419441874278495 0.012 0  0.001565665351390316 0.012 0  0.001749734577628449 0.012 0  0.001946961243490195 0.012 0  0.002145776300130266 0.012 0  0.002344617406455583 0.012 0  0.002543458512780745 0.012 0  0.002742299619105691 0.012 0  0.002941140725430647 0.012 0  0.003139981831755724 0.012 0  0.003338822938080718 0.012 0  0.003537664044405765 0.012 0  0.003736505150730789 0.012 0  0.003935346257055665 0.012 0  0.004134187363380482 0.012 0  0.004333028469705492 0.012 0  0.004531869576030592 0.012 0  0.004730710682355693 0.012 0  0.004929551788680701 0.012 0  0.005128392895005586 0.012 0  0.005327234001330656 0.012 0  0.005526075107655759 0.012 0  0.00572491621398086 0.012 0  0.005923757320305807 0.012 0  0.006122598426630523 0.012 0  0.006321439532955485 0.012 0  0.006520280639280587 0.012 0  0.006719121745605689 0.012 0  0.006917962851930744 0.012 0  0.007116803958255627 0.012 0  0.007315645064580652 0.012 0  0.007514486170905753 0.012 0  0.007713327277230856 0.012 0  0.007912168383555849 0.012 0  0.008111009489880579 0.012 0  0.008309850596205249 0.012 0  0.00850869170252992 0.012 0  0.008707532808854836 0.012 0  0.008906373915180277 0.012 0  0.009105215021505809 0.012 0  0.009304056127831339 0.012 0  0.009502897234156595 0.012 0  0.009701738340481325 0.012 0  0.00990057944680612 0.012 0  0.01009942055313165 0.012 0  0.01029826165945792 0.012 0  0.01049710276578432 0.012 0  0.01069594387211056 0.012 0  0.01089478497843628 0.012 0  0.01109362608476181 0.012 0  0.01129246719108743 0.012 0  0.01149130829741358 0.012 0  0.01169014940373998 0.012 0  0.01188899051006637 0.012 0  0.01208783161639276 0.012 0  0.01228667272271916 0.012 0  0.01248551382904555 0.012 0  0.01268435493537189 0.012 0  0.0128831960416977 0.012 0  0.01308203714802323 0.012 0  0.01328087825434876 0.012 0  0.01347971936067482 0.012 0  0.01367856046700121 0.012 0  0.01387740157332761 0.012 0  0.014076242679654 0.012 0  0.0142750837859804 0.012 0  0.01447392489230679 0.012 0  0.01467276599863288 0.012 0  0.01487160710495845 0.012 0  0.01507044821128398 0.012 0  0.01526928931760951 0.012 0  0.01546813042393538 0.012 0  0.01566697153026177 0.012 0  0.01586581263658817 0.012 0  0.01606465374291456 0.012 0  0.01626349484924096 0.012 0  0.01646233595556735 0.012 0  0.01666117706189375 0.012 0  0.01686001816822014 0.012 0  0.01705885927454654 0.012 0  0.01725770038087293 0.012 0  0.01745654148719933 0.012 0  0.01765538259352572 0.012 0  0.01785422369985126 0.012 0  0.01805303875649182 0.012 0  0.01825026542235476 0.012 0  0.01843433464859586 0.012 0  0.0185805581257116 0.012 0  0.01869644759817871 0.012 0  0.01880102555822882 0.012 0  0.01890209623883762 0.012 0  0.01900210246046605 0.012 0  0.01910189221441937 0.012 0  0.01920168196837277 0.012 0  0.01930147172232618 0.012 0  0.01940126147627958 0.012 0  0.01950105123023298 0.012 0  0.01960084098418639 0.012 0  0.01970063073813979 0.012 0  0.0198004204920932 0.012 0  0.0199002102460466 0.012 0  0.02 0.01190068474451468 0  0.02 0.01180136948902936 0  0.02 0.01170205423354404 0  0.02 0.01160273897805911 0  0.02 0.01150342372257466 0  0.02 0.0114041084670902 0  0.02 0.01130479321160574 0  0.02 0.01120547795612128 0  0.02 0.01110616270063682 0  0.02 0.01100684744515223 0  0.02 0.01090734303176592 0  0.02 0.01080684979503809 0  0.02 0.0107031139713015 0  0.02 0.01058894488657366 0  0.02 0.01044620416272257 0  0.02 0.01026501958270403 0  0.02 0.0100690905571399 0  0.02 0.009871242445170739 0  0.02 0.009673346824695263 0  0.02 0.009475451204219894 0  0.02 0.009277555583745276 0  0.02 0.009079659963270658 0  0.02 0.008881764342796038 0  0.02 0.008683868722321421 0  0.02 0.008485973101846803 0  0.02 0.008288077481371333 0  0.02 0.008090181860895874 0  0.02 0.007892286240421254 0  0.02 0.007694390619946956 0  0.02 0.007496494999471631 0  0.02 0.007298599378996185 0  0.02 0.007100703758521427 0  0.02 0.006902808138045967 0  0.02 0.006704912517569632 0  0.02 0.00650701689709391 0  0.02 0.00630912127661829 0  0.02 0.006111225656141982 0  0.02 0.005913330035665646 0  0.02 0.005715434415189312 0  0.02 0.005517538794713476 0  0.02 0.005319643174237913 0  0.02 0.005121747553761661 0  0.02 0.004923851933285327 0  0.02 0.00472595631280901 0  0.02 0.004528060692333383 0  0.02 0.004330165071857877 0  0.02 0.004132269451381683 0  0.02 0.003934412277780621 0  0.02 0.003738328628487856 0  0.02 0.003556206383353586 0  0.02 0.003412055643447466 0  0.02 0.003297217623570428 0  0.02 0.003193251726541566 0  0.02 0.003092681927108373 0  0.02 0.002993152554852059 0  0.02 0.002893837299367244 0  0.02 0.002794522043882504 0  0.02 0.002695206788397242 0  0.02 0.002595891532911922 0  0.02 0.002496576277426601 0  0.02 0.002397261021941282 0  0.02 0.002297945766455962 0  0.02 0.002198630510970641 0  0.02 0.002099315255485321 0  0.02 0.001904372539982662 0  0.02 0.00180874507996562 0  0.02 0.001713117619948905 0  0.02 0.001617490159932045 0  0.02 0.001521862699915003 0  0.02 0.001426235239897792 0  0.02 0.001330607779880864 0  0.02 0.00123498031986434 0  0.02 0.001139352859847767 0  0.02 0.001043725399830725 0  0.02 0.0009480373746167511 0  0.02 0.0008517785356742583 0  0.02 0.0007536755098076359 0  0.02 0.0006498368539039022 0  0.02 0.0005291058521203294 0  0.02 0.0003733069980584446 0  0.02 0.0001899121872328039 0  0.01980198019801899 0 0  0.01960396039603798 0 0  0.01940594059405751 0 0  0.01920792079207809 0 0  0.01900990099009879 0 0  0.0188118811881195 0 0  0.01861386138614021 0 0  0.01841584158416092 0 0  0.01821782178218163 0 0  0.01801980198020233 0 0  0.01782178217822304 0 0  0.01762376237624375 0 0  0.01742574257426446 0 0  0.01722772277228516 0 0  0.01702970297030587 0 0  0.01683168316832658 0 0  0.01663366336634692 0 0  0.01643564356436677 0 0  0.01623762376238662 0 0  0.01603960396040647 0 0  0.01584158415842632 0 0  0.01564356435644616 0 0  0.01544554455446567 0 0  0.01524752475248552 0 0  0.0150495049505056 0 0  0.0148514851485262 0 0  0.01465346534654691 0 0  0.01445544554456762 0 0  0.01425742574258833 0 0  0.01405940594060903 0 0  0.01386138613862974 0 0  0.01366336633665045 0 0  0.01346534653467116 0 0  0.01326732673269186 0 0  0.01306930693071257 0 0  0.01287128712873307 0 0  0.01267326732675304 0 0  0.01247524752477289 0 0  0.01227722772279274 0 0  0.01207920792081283 0 0  0.01188118811883343 0 0  0.01168316831685414 0 0  0.01148514851487485 0 0  0.0112871287128953 0 0  0.01108910891091523 0 0  0.01089108910893508 0 0  0.01069306930695493 0 0  0.01049504950497506 0 0  0.01029702970299571 0 0  0.01009900990101629 0 0  0.009900990099036141 0 0  0.009702970297055254 0 0  0.009504950495074242 0 0  0.009306930693093381 0 0  0.009108910891113039 0 0  0.008910891089132891 0 0  0.00871287128715266 0 0  0.008514851485171908 0 0  0.008316831683190898 0 0  0.008118811881209886 0 0  0.007920792079228876 0 0  0.007722772277247866 0 0  0.007524752475266856 0 0  0.007326732673285883 0 0  0.007128712871305429 0 0  0.00693069306932528 0 0  0.006732673267345128 0 0  0.006534653465364517 0 0  0.006336633663383506 0 0  0.006138613861402497 0 0  0.005940594059421487 0 0  0.005742574257440475 0 0  0.005544554455459467 0 0  0.005346534653478721 0 0  0.005148514851498497 0 0  0.004950495049518343 0 0  0.00475247524
[...]
<PointData  Scalars="T [K]"> 
<DataArray  type="Float64"  Name="T [K]"  format="ascii">2.0000000000000000e+01  3.1896102432054871e+01  1.5000000000000000e+02  1.5000000000000000e+02  3.1896543426331394e+01  2.0000000000000000e+01  2.1123643351041846e+01  2.2208732191600589e+01  2.3130556456466373e+01  2.3844903899077906e+01  2.4459314062361543e+01  2.5039800300687336e+01  2.5609392432230088e+01  2.6175627996398088e+01  2.6741533560180649e+01  2.7307482127833087e+01  2.7873485884748675e+01  2.8439579433503219e+01  2.9005790017620669e+01  2.9572186927757670e+01  3.0138921424755278e+01  3.0706214141252193e+01  3.1275376896506959e+01  3.2868585321476644e+01  3.4035565061701888e+01  3.5209786710890917e+01  3.6385499533055118e+01  3.7561421947415283e+01  3.8737256531558522e+01  3.9912970420411540e+01  4.1088575920395520e+01  4.2264082696279118e+01  4.3439512933065309e+01  4.4617418080575959e+01  4.5807579315974252e+01  4.7037884534523620e+01  4.8396806103215276e+01  5.0102547323286565e+01  5.2257535944460301e+01  5.4577659505528629e+01  5.6918720651469989e+01  5.9260193027194177e+01  6.1601627798544307e+01  6.3943034163943992e+01  6.6284416760570934e+01  6.8625775512967905e+01  7.0967115603868663e+01  7.3308438513971311e+01  7.5649746353115177e+01  7.7991041068016443e+01  8.0332325527227098e+01  8.2673598624055089e+01  8.5014861805839047e+01  8.7356117918430201e+01  8.9697366021207415e+01  9.2038607742925961e+01  9.4379843834096633e+01  9.6721074856101723e+01  9.9062301455871960e+01  1.0140352387908518e+02  1.0374474351572937e+02  1.0608595989167380e+02  1.0842717402141159e+02  1.1076838619240722e+02  1.1310959656558946e+02  1.1545080576110267e+02  1.1779201423655304e+02  1.2013322195943302e+02  1.2247442929292953e+02  1.2481563655911144e+02  1.2715628228629890e+02  1.2947422455519373e+02  1.3161773290163364e+02  1.3330643098151009e+02  1.3465711185348718e+02  1.3588436205052022e+02  1.3707325104694564e+02  1.3825044212507930e+02  1.3942539574363204e+02  1.4060034977575941e+02  1.4177530424347393e+02  1.4295025918047787e+02  1.4412521460776051e+02  1.4530017054839277e+02  1.4647512703801038e+02  1.4765008409122407e+02  1.4882504174267945e+02  1.5000000000000000e+02  1.5000000000000000e+02  1.5000000000000000e+02  1.5000000000000003e+02  1.5000000000000000e+02  1.5000000000000003e+02  1.5000000000000000e+02  1.5000000000000000e+02  1.5000000000000000e+02  1.5000000000000003e+02  1.5000000000000003e+02  1.5000000000000000e+02  1.5000000000000000e+02  1.5000000000000000e+02  1.5000000000000000e+02  1.5000000000000003e+02  1.5000000000000000e+02  1.5000000000000000e+02  1.5000000000000000e+02  1.5000000000000000e+02  1.5000000000000000e+02  1.5000000000000000e+02  1.5000000000000003e+02  1.5000000000000003e+02  1.5000000000000000e+02  1.5000000000000000e+02  1.5000000000000000e+02  1.4999999999999997e+02  1.5000000000000000e+02  1.5000000000000000e+02  1.5000000000000000e+02  1.5000000000000000e+02  1.5000000000000000e+02  1.5000000000000000e+02  1.5000000000000000e+02  1.5000000000000000e+02  1.5000000000000000e+02  1.5000000000000000e+02  1.5000000000000000e+02  1.5000000000000000e+02  1.5000000000000003e+02  1.5000000000000000e+02  1.5000000000000000e+02  1.5000000000000000e+02  1.4999999999999997e+02  1.4999999999999997e+02  1.5000000000000003e+02  1.4999999999999997e+02  1.4999999999999997e+02  1.5000000000000000e+02  1.5000000000000000e+02  1.5000000000000003e+02  1.5000000000000000e+02  1.5000000000000000e+02  1.5000000000000003e+02  1.4999999999999997e+02  1.5000000000000003e+02  1.5000000000000000e+02  1.5000000000000000e+02  1.5000000000000000e+02  1.5000000000000000e+02  1.5000000000000003e+02  1.5000000000000000e+02  1.5000000000000000e+02  1.5000000000000003e+02  1.5000000000000003e+02  1.4999999999999997e+02  1.5000000000000003e+02  1.5000000000000003e+02  1.5000000000000000e+02  1.5000000000000000e+02  1.5000000000000000e+02  1.5000000000000000e+02  1.5000000000000000e+02  1.5000000000000000e+02  1.5000000000000000e+02  1.5000000000000000e+02  1.5000000000000003e+02  1.5000000000000000e+02  1.5000000000000000e+02  1.5000000000000000e+02  1.5000000000000000e+02  1.5000000000000003e+02  1.5000000000000000e+02  1.5000000000000003e+02  1.5000000000000000e+02  1.5000000000000000e+02  1.5000000000000003e+02  1.5000000000000003e+02  1.5000000000000003e+02  1.5000000000000000e+02  1.5000000000000000e+02  1.4999999999999997e+02  1.5000000000000000e+02  1.5000000000000000e+02  1.5000000000000003e+02  1.4999999999999997e+02  1.5000000000000000e+02  1.5000000000000003e+02  1.5000000000000000e+02  1.5000000000000003e+02  1.4999999999999997e+02  1.5000000000000000e+02  1.5000000000000003e+02  1.5000000000000000e+02  1.4999999999999997e+02  1.5000000000000000e+02  1.5000000000000000e+02  1.4999999999999997e+02  1.5000000000000000e+02  1.5000000000000000e+02  1.5000000000000003e+02  1.5000000000000000e+02  1.5000000000000000e+02  1.4882506107004764e+02  1.4765012274147730e+02  1.4647518500307268e+02  1.4530024781552140e+02  1.4412531115951018e+02  1.4295037499657397e+02  1.4177543929875077e+02  1.4060050403886277e+02  1.3942556917809770e+02  1.3825063469400908e+02  1.3707346274041430e+02  1.3588459300936543e+02  1.3465736263966986e+02  1.3330670351293455e+02  1.3161803247901997e+02  1.2947455825090975e+02  1.2715665255108838e+02  1.2481604331726508e+02  1.2247487213833503e+02  1.2013370033969858e+02  1.1779252753274331e+02  1.1545135322221505e+02  1.1311017742341113e+02  1.1076899963790657e+02  1.0842781900265454e+02  1.0608663520929595e+02  1.0374544790277881e+02  1.0140425582932005e+02  9.9063059517602170e+01  9.6721857168153761e+01  9.4380648487593319e+01  9.2039432498569312e+01  8.9698208296348326e+01  8.7356975263869415e+01  8.5015730765137064e+01  8.2674476360279741e+01  8.0333208052271914e+01  7.7991924968068219e+01  7.5650626017372872e+01  7.3309309873425306e+01  7.0967973302296045e+01  6.8626613646480038e+01  6.6285229281414260e+01  6.3943813686302398e+01  6.1602366821541430e+01  5.9260884880397192e+01  5.6919355483077695e+01  5.4578230802182532e+01  5.2258036660619567e+01  5.0102973121303314e+01  4.8397167533887476e+01  4.7038191851657587e+01  4.5807835604315002e+01  4.4617623498190014e+01  4.3439667144373956e+01  4.2264185592933622e+01  4.1088629596953652e+01  3.9912979771395086e+01  3.8737226928365317e+01  3.7561373512800550e+01  3.6385460386652888e+01  3.5209800830234890e+01  3.4035680581372965e+01  3.2868860970475829e+01  3.1275897022152432e+01  3.0706774541677543e+01  3.0139490501054610e+01  2.9572747198596424e+01  2.9006328831158729e+01  2.8440090507793546e+01  2.7873965631679674e+01  2.7307928418822033e+01  2.6741945397504040e+01  2.6176004877575124e+01  2.5609734189760076e+01  2.5040106704462254e+01  2.4459584550030218e+01  2.3845136557619874e+01  2.3130745416988756e+01  2.2208865147903541e+01  2.1123710858992883e+01  2.0000000000000004e+01  2.0000000000000000e+01  2.0000000000000004e+01  2.0000000000000000e+01  2.0000000000000000e+01  2.0000000000000000e+01  2.0000000000000000e+01  2.0000000000000004e+01  2.0000000000000000e+01  2.0000000000000000e+01  2.0000000000000000e+01  2.0000000000000000e+01  2.0000000000000000e+01  2.0000000000000000e+01  1.9999999999999996e+01  2.0000000000000000e+01  2.0000000000000004e+01  2.0000000000000000e+01  2.0000000000000000e+01  2.0000000000000000e+01  2.0000000000000000e+01  2.0000000000000000e+01  2.0000000000000004e+01  2.0000000000000000e+01  2.0000000000000000e+01  1.9999999999999996e+01  2.0000000000000000e+01  2.0000000000000000e+01  2.0000000000000004e+01  2.0000000000000000e+01  2.0000000000000000e+01  2.0000000000000000e+01  2.0000000000000000e+01  2.0000000000000000e+01  2.0000000000000004e+01  2.0000000000000000e+01  2.0000000000000000e+01  2.0000000000000000e+01  1.9999999999999996e+01  1.9999999999999996e+01  2.0000000000000000e+01  2.0000000000000000e+01  2.0000000000000000e+01  2.0000000000000000e+01  2.0000000000000000e+01  2.0000000000000004e+01  2.0000000000000000e+01  2.0000000000000000e+01  2.0000000000000000e+01  2.0000000000000000e+01  1.9999999999999996e+01  2.0000000000000000e+01  2.0000000000000004e+01  2.0000000000000000e+01  2.0000000000000004e+01  2.0000000000000004e+01  2.0000000000000000e+01  2.0000000000000000e+01  2.0000000000000004e+01  2.0000000000000000e+01  2.0000000000000000e+01  1.9999999999999996e+01  2.0000000000000000e+01  2.0000000000000000e+01  2.0000000000000000e+01  2.0000000000000000e+01  2.0000000000000000e+01  1.9999999999999996e+01  2.0000000000000000e+01  2.0000000000000004e+01  2.0000000000000000e+01  2.0000000000000000e+01  2.0000000000000004e+01  2.0000000000000000e+01  2.0000000000000000e+01  2.0000000000000004e+01  2.0000000000000000e+01  2.0000000000000000e+01  2.0000000000000000e+01  1.9999999999999996e+01  2.0000000000000000e+01  2.0000000000000004e+01  2.0000000000000004e+01  1.9999999999999996e+01  2.0000000000000000e+01  2.0000000000000004e+01  1.9999999999999996e+01  2.0000000000000000e+01  2.0000000000000004e+01  2.0000000000000000e+01  2.0000000000000000e+01  2.0000000000000004e+01  2.0000000000000000e+01  2.0000000000000000e+01  2.0000000000000004e+01  2.0000000000000000e+01  2.0000000000000004e+01  2.0000000000000000e+01  2.0000000000000000e+01  2.0000000000000000e+01  3.1905959956798402e+01  3.1921197046650054e+01  3.1906919193315204e+01  3.1910694697523180e+01  3.1914559449213872e+01  3.1912847855526014e+01  3.1906566423687799e+01  3.1900277723327015e+01  3.1902798742771346e+01  3.1914767870443423e+01  3.1903916894429834e+01  3.1902525300074650e+01  3.1896324179342226e+01  3.1901363820657018e+01  3.1902043558843179e+01  3.1907989010677877e+01  3.1902927435788129e+01  3.1911922654324776e+01  3.1899703663247038e+01  3.1906995601595533e+01  3.1904352084368664e+01  3.1903280530970498e+01  3.1907383835438775e+01  3.1899789971525109e+01  3.1908040342502648e+01  3.1909969406960141e+01  3.1912360897699081e+01  3.1907763425091467e+01  3.1905753030260740e+01  3.1909983226837252e+01  3.1917966640110944e+01  3.1904482862167630e+01  3.1902363056476673e+01  3.1909746449547885e+01  3.1906521614698214e+01  3.1902504687927848e+01  3.1898257864850983e+01  3.1905618810733358e+01  3.1905737685790687e+01  3.1908417432757084e+01  3.1903467569429843e+01  3.1912110321089081e+01  3.1907351734145120e+01  3.1907346953541580e+01  3.1902236937693935e+01  3.1894995254436601e+01  3.1904609528232786e+01  3.1905613857184623e+01  3.1904028738587325e+01  3.1900514666826968e+01  3.1897667347976217e+01  3.1899454982949656e+01  3.1898465059239086e+01  3.1904433989669730e+01  3.1892012650837067e+01  3.1901227959247866e+01  3.1895787184067750e+01  3.1900862533100288e+01  3.1899811925400677e+01  3.1897996767934394e+01  3.1910604474835022e+01  3.1908216425344438e+01  3.1905521623040233e+01  3.1901265452131831e+01  3.1905119576591332e+01  3.1905484939631570e+01  3.1907670697889653e+01  3.1911576819601478e+01  3.1908901779707062e+01  3.1910319762901320e+01  3.1901907450901387e+01  3.1899611575807715e+01  3.1893080395937865e+01  3.1904664977701827e+01  3.1910462871923734e+01  3.1906067162319971e+01  3.1893244973733470e+01  3.1894857485113430e+01  3.1899677813096204e+01  3.1901535699129525e+01  3.1904535216449549e+01  3.1906312982848650e+01  3.1911947334472380e+01  3.1910018098042308e+01  3.1909460350343821e+01  3.1896523249431375e+01  3.1905078369147446e+01  3.1896849138703473e+01  3.1904066778456208e+01  3.1901172562679623e+01  3.1904755160988998e+01  3.1907034064760989e+01  3.1904220464400435e+01  3.1911849683477897e+01  3.1905691502026276e+01  3.1914369862754992e+01  3.1902287474570318e+01  3.1910841699877508e+01  3.1907056238392396e+01  3.1902291346267067e+01  3.1895564197027497e+01  3.1900567108211519e+01  3.1901256397964019e+01  3.1900315516813631e+01  3.1894653240181498e+01  3.1905731728045321e+01  3.1906945533101460e+01  3.1902758310452047e+01  3.1898872880834947e+01  3.1902780382100609e+01  3.1905445250181558e+01  3.1909055354706627e+01  3.1903282499861831e+01  3.1903750701548507e+01  3.1909464224811785e+01  3.1908416728581376e+01  3.1906093057727325e+01  3.1900043882562326e+01  3.1898268233326043e+01  3.1899276460060992e+01  3.1905325118810989e+01  3.1897104367721628e+01  3.1902301015482429e+01  3.1898983434207601e+01  3.1897746756372847e+01  3.1902695912923907e+01  3.1892483225929322e+01  3.1900402452092347e+01  3.1898060066643275e+01  3.1897998638709893e+01  3.1896041932617884e+01  3.1901067293377828e+01  3.1902237245150676e+01  3.1904948868090951e+01  3.1900332941299183e+01  3.1901845808493931e+01  3.1907746343843503e+01  3.1907858346848808e+01  3.1903803980123612e+01  3.1905459156725989e+01  3.1899378988035590e+01  3.1903471103439713e+01  3.1903625525995437e+01  3.1903566537656562e+01  3.1905999614396965e+01  3.1896060675139882e+01  3.1905151882098817e+01  3.1901729557193534e+01  3.1901027026212287e+01  3.1904365291353464e+01  3.1901261934163792e+01  3.1904799628408494e+01  3.1902374071620329e+01  3.1892826390648228e+01  3.1894272585096431e+01  3.1895702472955808e+01  3.1899857903403383e+01  3.1896230850532262e+01  3.1899771869408241e+01  3.1905878607688251e+01  3.1905324117795303e+01  3.1906276484402305e+01  3.1898903863581047e+01  3.1902955131951607e+01  3.1906989701458542e+01  3.1910204146729910e+01  3.1902816256788828e+01  3.1904894169017293e+01  3.1918231823507178e+01  3.1909929633724904e+01  3.1905607299184666e+01  3.1907795548265959e+01  3.1913235810175905e+01  3.1910595579936501e+01  3.1909988263127989e+01  3.1899210371879978e+01  3.1908990945186385e+01  3.1904464620878116e+01  3.1903590175751294e+01  3.1905970090976112e+01  3.1899305065588187e+01  3.1912218106680609e+01  3.1903458444676232e+01  3.1908875225987096e+01  3.1903153627615104e+01  3.1905073257764325e+01  3.1897581342728095e+01  3.1903556955555491e+01  3.1904584650716597e+01  3.1915285583412942e+01  3.1903332044853606e+01  3.1900838395104273e+01  3.1907262661717812e+01  3.1913818024840285e+01  3.1915763681253289e+01  3.1911786050815067e+01  3.1907774329425351e+01  3.1921722507627418e+01  3.1906415541859410e+01  9.0793035154081792e+01  9.1174768153432410e+01  8.9675728843644634e+01  6.8010169005473486e+01  6.8086326120277718e+01  6.6461901726448929e+01  6.6488589637863541e+01  6.0621949970924589e+01  5.9270577572351776e+01  5.9183553145006478e+01  1.1288789835686634e+02  1.1295480669610762e+02  1.1513925007633620e+02  1.1517544290670837e+02  4.8843073469349086e+01  4.8843721535752174e+01  5.1978032038151440e+01  1.3398179587950554e+02  1.3386504350553540e+02  1.2009834313730735e+02  5.1320692271932970e+01  4.8317469905024062e+01  4.8319088721456161e+01  5.1185400953440947e+01  5.0916234002698289e+01  4.7164548779170062e+01  4.7193770895284999e+01  1.2149790460688199e+02  1.2175725306525553e+02  9.1201233887698294e+01  9.0507864819898913e+01  4.4907704394782350e+01  4.4850896471263148e+01  9.0376077216233426e+01  9.0585640319046945e+01  4.6578619268266998e+01  4.3613660474395296e+01  4.2492342838270318e+01  4.2117620028259203e+01  4.2338050904006714e+01  1.2985781850233343e+02  1.2976413366311183e+02  4.1569276003440024e+01  4.1569153068652099e+01  4.1590438430306435e+01  1.3015534357374250e+02  1.3042230655268312e+02  6.6224062720457695e+01  6.6293146742754985e+01  4.1382772605438412e+01  4.2313525633065318e+01  9.6994826368996328e+01  4.2059286757311625e+01  4.2159048679107912e+01  1.3096528161956806e+02  1.3111668477982465e+02  7.5001758615453241e+01  4.1219789715921543e+01  1.0513929314274851e+02  9.8657265428172153e+01  7.6120435111484127e+01  7.5608742153970297e+01  7.6042314684604264e+01  1.0520386344996888e+02  8.3206303173419855e+01  8.3252374687217213e+01  1.0711418685168925e+02  1.0753612188570038e+02  1.0710968787192043e+02  1.0707184876921940e+02  4.1488041449912949e+01  4.1490822552217246e+01  4.0689759880676725e+01  1.4091308362832834e+02  1.4091293355504939e+02  4.0197493351659460e+01  4.0152883911765286e+01  6.1233016360205923e+01  6.1026339067773620e+01  3.9700999021742824e+01  5.1614322988530915e+01  3.9583722783507937e+01  3.9712999124204387e+01  3.9821866657400768e+01  3.9731117798415703e+01  5.7534606560841908e+01  5.7542493911229016e+01  1.0517898178175632e+02  7.4585108596636005e+01  5.2309629315793401e+01  7.4018961675246302e+01  1.2984771860772182e+02  1.0030259939437185e+02  1.0049419268843039e+02  1.2902702173841672e+02  1.3488416049335785e+02  8.1203756358707963e+01  8.1343678245734623e+01  1.1281512355753374e+02  3.9128869478121281e+01  3.9115833829022662e+01  3.9008991976139363e+01  1.1556982981358607e+02  1.3535142064468383e+02  3.8806602270376523e+01  1.3576488183867889e+02  4.9347642994364577e+01  4.9345139882544643e+01  3.8710046293663005e+01  8.2084903146902406e+01  8.4592155568035551e+01  3.8487179286463743e+01  6.3389581288504793e+01  1.4331057403800159e+02  1.4320997405030482e+02  4.9221516159855064e+01  1.3398177656132714e+02  1.3398203945123765e+02  1.2044184059619150e+02  1.2018443467687618e+02  6.3656235345682660e+01  4.9945477854848924e+01  4.9945963169457094e+01  1.0361951676680704e+02  5.2023887013519214e+01  5.2415546728633984e+01  9.4976711218901940e+01  9.4989793932476900e+01  1.1707957149867678e+02  7.8002694798246196e+01  7.8047651118358132e+01  3.8292823182512151e+01  3.8316605991312983e+01  5.2044923029367908e+01  3.8238978268353335e+01  1.1688778208053031e+02  6.2681223540304785e+01  5.2647834645254704e+01  5.5973239766128756e+01  1.3747063862109655e+02  1.3746120141797041e+02  6.3717757790705988e+01  1.1869586476153177e+02  1.1861714753439276e+02  3.7858412411903316e+01  1.3773654328253758e+02  7.7204134216731873e+01  1.0096081130118370e+02  7.8502548554236995e+01  8.6528815571646774e+01  9.4357180693242498e+01  9.4123418457034504e+01  3.7674515136500155e+01  1.0248137533603440e+02  3.7804726246207686e+01  4.5890192148991666e+01  3.7802950412124815e+01  5.7190957759440650e+01  5.7193360758737455e+01  8.7640321409939176e+01  1.3834678786684040e+02  1.3821523447066062e+02  8.7289715632329475e+01  3.7537555643154391e+01  3.7537791585446335e+01  7.7933370527095235e+01  1.3932359923797566e+02  1.2430449188409719e+02  1.3932939270595443e+02  1.2465664641963768e+02  4.3877076387085552e+01  1.3879628405254445e+02  3.7418662256675326e+01  8.8937021124481575e+01  7.2119926308221764e+01  1.3876243776616502e+02  5.8492090730804492e+01  7.1934838401135380e+01  4.5174588550254576e+01  4.5174341746179941e+01  3.7256594602373397e+01  1.2032728091335345e+02  1.2009190520561819e+02  4.4109549733683870e+01  1.0148505344817974e+02  3.7224886091383446e+01  3.7207415222239078e+01  5.7524989533327123e+01  5.7579778538394962e+01  4.9719979892766602e+01  4.9718916756738253e+01  3.7300166502272035e+01  3.7223769565738536e+01  4.4366455542504355e+01  3.7128252135555464e+01  3.7246187564338676e+01  4.9031723278415903e+01  4.6661501679524726e+01  3.7093365381507304e+01  3.7069327946349880e+01  3.7067838533544254e+01  1.0120313991786378e+02  1.0602460343044044e+02  1.3947583645403057e+02  3.7003932077114960e+01  1.2748736479779053e+02  1.4471774779263555e+02  1.4471766079236275e+02  1.3958308775986623e+02  1.2334406870836143e+02  3.6863650165163882e+01  3.6860119358616572e+01  1.0701445812882018e+02  1.3951877948653808e+02  4.3969494511154799e+01  3.6795436917739806e+01  4.6993341042525756e+01  1.2595355624066110e+02  1.0691103206986338e+02  6.0412133856387229e+01  4.4962178611249392e+01  1.1185804095143384e+02  1.4007460215489411e+02  9.0574163659773419e+01  9.0487098018980518e+01  7.4806038300831389e+01  3.6687705291660478e+01  4.3220836784145149e+01  6.8992470043251188e+01  1.2675569555435273e+02  3.6680769146544627e+01  9.9243144850555908e+01  9.1269994627612689e+01  8.1363616537908925e+01  6.5942969811002712e+01  8.1487935710851886e+01  3.6624559660836539e+01  1.2827380834107583e+02  9.5979016042982195e+01  7.2473614691332074e+01  7.2650540637866357e+01  1.1225718441550555e+02  4.3633894843370378e+01  4.3630044199697977e+01  8.4183293155017026e+01  8.4107678902668880e+01  5.4523480630603409e+01  1.0412816368058891e+02  4.420252508152378