<?xml version="1.0"?>
<VTKFile type="UnstructuredGrid"  version="0.1"  >
<UnstructuredGrid>
<Piece  NumberOfPoints="13994" NumberOfCells="27604">
<Points>
<DataArray  type="Float64"  NumberOfComponents="3"  format="ascii">0 0 0  0 0.002 0  0 0.012 0  0.02 0.012 0  0.02 0.002 0  0.02 0 0  0 0.00018991218723181 0  0 0.0003733069980565314 0  0 0.0005291058521180011 0  0 0.0006498368539013445 0  0 0.0007536755098046806 0  0 0.0008517785356707968 0  0 0.0009480373746127394 0  0 0.001043725399826676 0  0 0.001139352859843888 0  0 0.001234980319861256 0  0 0.001330607779878751 0  0 0.001426235239895836 0  0 0.001521862699913337 0  0 0.001617490159930668 0  0 0.001713117619947918 0  0 0.001808745079965419 0  0 0.00190437253998255 0  0 0.002099315255484767 0  0 0.00219863051096945 0  0 0.002297945766454132 0  0 0.002397261021938822 0  0 0.002496576277423643 0  0 0.002595891532908487 0  0 0.002695206788393201 0  0 0.002794522043877884 0  0 0.002893837299362567 0  0 0.002993152554847297 0  0 0.003092681927103184 0  0 0.003193251726535867 0  0 0.003297217623563905 0  0 0.003412055643439157 0  0 0.003556206383341719 0  0 0.00373832862847297 0  0 0.003934412277764292 0  0 0.004132269451364158 0  0 0.004330165071839649 0  0 0.004528060692314851 0  0 0.004725956312789485 0  0 0.004923851933264119 0  0 0.005121747553738754 0  0 0.005319643174213387 0  0 0.005517538794688026 0  0 0.005715434415163353 0  0 0.00591333003563883 0  0 0.006111225656113617 0  0 0.006309121276588279 0  0 0.006507016897063628 0  0 0.006704912517539083 0  0 0.006902808138013848 0  0 0.007100703758489355 0  0 0.007298599378965707 0  0 0.00749649499944143 0  0 0.007694390619917074 0  0 0.007892286240393405 0  0 0.008090181860869756 0  0 0.008288077481346107 0  0 0.008485973101822112 0  0 0.008683868722297605 0  0 0.008881764342773803 0  0 0.009079659963250154 0  0 0.009277555583726452 0  0 0.009475451204201943 0  0 0.009673346824677437 0  0 0.009871242445153522 0  0 0.01006909055712404 0  0 0.01026501958268966 0  0 0.01044620416271123 0  0 0.01058894488656577 0  0 0.0107031139712953 0  0 0.0108068497950327 0  0 0.01090734303176106 0  0 0.01100684744514782 0  0 0.01110616270063268 0  0 0.01120547795611743 0  0 0.0113047932116027 0  0 0.01140410846708803 0  0 0.01150342372257336 0  0 0.01160273897805869 0  0 0.01170205423354402 0  0 0.01180136948902934 0  0 0.01190068474451467 0  9.978975395281022e-05 0.012 0  0.0001995795079056199 0.012 0  0.0002993692618584289 0.012 0  0.0003991590158112439 0.012 0  0.0004989487697640555 0.012 0  0.0005987385237168579 0.012 0  0.0006985282776696451 0.012 0  0.0007983180316224271 0.012 0  0.000898107785575209 0.012 0  0.0009978975395279867 0.012 0  0.001097903761155907 0.012 0  0.00119897444176409 0.012 0  0.001303552401813303 0.012 0  0.001419441874278495 0.012 0  0.001565665351390316 0.012 0  0.001749734577628449 0.012 0  0.001946961243490195 0.012 0  0.002145776300130266 0.012 0  0.002344617406455583 0.012 0  0.002543458512780745 0.012 0  0.002742299619105691 0.012 0  0.002941140725430647 0.012 0  0.003139981831755724 0.012 0  0.003338822938080718 0.012 0  0.003537664044405765 0.012 0  0.003736505150730789 0.012 0  0.003935346257055665 0.012 0  0.004134187363380482 0.012 0  0.004333028469705492 0.012 0  0.004531869576030592 0.012 0  0.004730710682355693 0.012 0  0.004929551788680701 0.012 0  0.005128392895005586 0.012 0  0.005327234001330656 0.012 0  0.005526075107655759 0.012 0  0.00572491621398086 0.012 0  0.005923757320305807 0.012 0  0.006122598426630523 0.012 0  0.006321439532955485 0.012 0  0.006520280639280587 0.012 0  0.006719121745605689 0.012 0  0.006917962851930744 0.012 0  0.007116803958255627 0.012 0  0.007315645064580652 0.012 0  0.007514486170905753 0.012 0  0.007713327277230856 0.012 0  0.007912168383555849 0.012 0  0.008111009489880579 0.012 0  0.008309850596205249 0.012 0  0.00850869170252992 0.012 0  0.008707532808854836 0.012 0  0.008906373915180277 0.012 0  0.009105215021505809 0.012 0  0.009304056127831339 0.012 0  0.009502897234156595 0.012 0  0.009701738340481325 0.012 0  0.00990057944680612 0.012 0  0.01009942055313165 0.012 0  0.01029826165945792 0.012 0  0.01049710276578432 0.012 0  0.01069594387211056 0.012 0  0.01089478497843628 0.012 0  0.01109362608476181 0.012 0  0.01129246719108743 0.012 0  0.01149130829741358 0.012 0  0.01169014940373998 0.012 0  0.01188899051006637 0.012 0  0.01208783161639276 0.012 0  0.01228667272271916 0.012 0  0.01248551382904555 0.012 0  0.01268435493537189 0.012 0  0.0128831960416977 0.012 0  0.01308203714802323 0.012 0  0.01328087825434876 0.012 0  0.01347971936067482 0.012 0  0.01367856046700121 0.012 0  0.01387740157332761 0.012 0  0.014076242679654 0.012 0  0.0142750837859804 0.012 0  0.01447392489230679 0.012 0  0.01467276599863288 0.012 0  0.01487160710495845 0.012 0  0.01507044821128398 0.012 0  0.01526928931760951 0.012 0  0.01546813042393538 0.012 0  0.01566697153026177 0.012 0  0.01586581263658817 0.012 0  0.01606465374291456 0.012 0  0.01626349484924096 0.012 0  0.01646233595556735 0.012 0  0.01666117706189375 0.012 0  0.01686001816822014 0.012 0  0.01705885927454654 0.012 0  0.01725770038087293 0.012 0  0.01745654148719933 0.012 0  0.01765538259352572 0.012 0  0.01785422369985126 0.012 0  0.01805303875649182 0.012 0  0.01825026542235476 0.012 0  0.01843433464859586 0.012 0  0.0185805581257116 0.012 0  0.01869644759817871 0.012 0  0.01880102555822882 0.012 0  0.01890209623883762 0.012 0  0.01900210246046605 0.012 0  0.01910189221441937 0.012 0  0.01920168196837277 0.012 0  0.01930147172232618 0.012 0  0.01940126147627958 0.012 0  0.01950105123023298 0.012 0  0.01960084098418639 0.012 0  0.01970063073813979 0.012 0  0.0198004204920932 0.012 0  0.0199002102460466 0.012 0  0.02 0.01190068474451468 0  0.02 0.01180136948902936 0  0.02 0.01170205423354404 0  0.02 0.01160273897805911 0  0.02 0.01150342372257466 0  0.02 0.0114041084670902 0  0.02 0.01130479321160574 0  0.02 0.01120547795612128 0  0.02 0.01110616270063682 0  0.02 0.01100684744515223 0  0.02 0.01090734303176592 0  0.02 0.01080684979503809 0  0.02 0.0107031139713015 0  0.02 0.01058894488657366 0  0.02 0.01044620416272257 0  0.02 0.01026501958270403 0  0.02 0.0100690905571399 0  0.02 0.009871242445170739 0  0.02 0.009673346824695263 0  0.02 0.009475451204219894 0  0.02 0.009277555583745276 0  0.02 0.009079659963270658 0  0.02 0.008881764342796038 0  0.02 0.008683868722321421 0  0.02 0.008485973101846803 0  0.02 0.008288077481371333 0  0.02 0.008090181860895874 0  0.02 0.007892286240421254 0  0.02 0.007694390619946956 0  0.02 0.007496494999471631 0  0.02 0.007298599378996185 0  0.02 0.007100703758521427 0  0.02 0.006902808138045967 0  0.02 0.006704912517569632 0  0.02 0.00650701689709391 0  0.02 0.00630912127661829 0  0.02 0.006111225656141982 0  0.02 0.005913330035665646 0  0.02 0.005715434415189312 0  0.02 0.005517538794713476 0  0.02 0.005319643174237913 0  0.02 0.005121747553761661 0  0.02 0.004923851933285327 0  0.02 0.00472595631280901 0  0.02 0.004528060692333383 0  0.02 0.004330165071857877 0  0.02 0.004132269451381683 0  0.02 0.003934412277780621 0  0.02 0.003738328628487856 0  0.02 0.003556206383353586 0  0.02 0.003412055643447466 0  0.02 0.003297217623570428 0  0.02 0.003193251726541566 0  0.02 0.003092681927108373 0  0.02 0.002993152554852059 0  0.02 0.002893837299367244 0  0.02 0.002794522043882504 0  0.02 0.002695206788397242 0  0.02 0.002595891532911922 0  0.02 0.002496576277426601 0  0.02 0.002397261021941282 0  0.02 0.002297945766455962 0  0.02 0.002198630510970641 0  0.02 0.002099315255485321 0  0.02 0.001904372539982662 0  0.02 0.00180874507996562 0  0.02 0.001713117619948905 0  0.02 0.001617490159932045 0  0.02 0.001521862699915003 0  0.02 0.001426235239897792 0  0.02 0.001330607779880864 0  0.02 0.00123498031986434 0  0.02 0.001139352859847767 0  0.02 0.001043725399830725 0  0.02 0.0009480373746167511 0  0.02 0.0008517785356742583 0  0.02 0.0007536755098076359 0  0.02 0.0006498368539039022 0  0.02 0.0005291058521203294 0  0.02 0.0003733069980584446 0  0.02 0.0001899121872328039 0  0.01980198019801899 0 0  0.01960396039603798 0 0  0.01940594059405751 0 0  0.01920792079207809 0 0  0.01900990099009879 0 0  0.0188118811881195 0 0  0.01861386138614021 0 0  0.01841584158416092 0 0  0.01821782178218163 0 0  0.01801980198020233 0 0  0.01782178217822304 0 0  0.01762376237624375 0 0  0.01742574257426446 0 0  0.01722772277228516 0 0  0.01702970297030587 0 0  0.01683168316832658 0 0  0.01663366336634692 0 0  0.01643564356436677 0 0  0.01623762376238662 0 0  0.01603960396040647 0 0  0.01584158415842632 0 0  0.01564356435644616 0 0  0.01544554455446567 0 0  0.01524752475248552 0 0  0.0150495049505056 0 0  0.0148514851485262 0 0  0.01465346534654691 0 0  0.01445544554456762 0 0  0.01425742574258833 0 0  0.01405940594060903 0 0  0.01386138613862974 0 0  0.01366336633665045 0 0  0.01346534653467116 0 0  0.01326732673269186 0 0  0.01306930693071257 0 0  0.01287128712873307 0 0  0.01267326732675304 0 0  0.01247524752477289 0 0  0.01227722772279274 0 0  0.01207920792081283 0 0  0.01188118811883343 0 0  0.01168316831685414 0 0  0.01148514851487485 0 0  0.0112871287128953 0 0  0.01108910891091523 0 0  0.01089108910893508 0 0  0.01069306930695493 0 0  0.01049504950497506 0 0  0.01029702970299571 0 0  0.01009900990101629 0 0  0.009900990099036141 0 0  0.009702970297055254 0 0  0.009504950495074242 0 0  0.009306930693093381 0 0  0.009108910891113039 0 0  0.008910891089132891 0 0  0.00871287128715266 0 0  0.008514851485171908 0 0  0.008316831683190898 0 0  0.008118811881209886 0 0  0.007920792079228876 0 0  0.007722772277247866 0 0  0.007524752475266856 0 0  0.007326732673285883 0 0  0.007128712871305429 0 0  0.00693069306932528 0 0  0.006732673267345128 0 0  0.006534653465364517 0 0  0.006336633663383506 0 0  0.006138613861402497 0 0  0.005940594059421487 0 0  0.005742574257440475 0 0  0.005544554455459467 0 0  0.005346534653478721 0 0  0.005148514851498497 0 0  0.004950495049518343 0 0  0.00475247524
[...]
<PointData  Scalars="VMS [Pa]"> 
<DataArray  type="Float64"  Name="VMS [Pa]"  format="ascii">3.2435743160217819e+04  2.5756597833213778e+06  4.9227309202904871e+02  4.9224494177087723e+02  2.5757479036863353e+06  3.2436387200473593e+04  1.0647469797512049e+04  1.8657631386553231e+05  4.2874164765865658e+05  6.5194468062997865e+05  8.6040830255347851e+05  1.0687307850640910e+06  1.2827807926513457e+06  1.5102354640039224e+06  1.7304298482371890e+06  1.9555603936134013e+06  2.2027804719426315e+06  2.4473897734528645e+06  2.7205993492199513e+06  3.0007700969945993e+06  3.3616675244637635e+06  3.8062420343993418e+06  4.3830704084361764e+06  3.6638648388976143e+06  3.6256943607109133e+06  3.5079807307661991e+06  3.5542149828561391e+06  3.5835933054559282e+06  3.5789392207968105e+06  3.5561321921127299e+06  3.5269708639208167e+06  3.4884646802648967e+06  3.4425490034230310e+06  3.3947010387831512e+06  3.3439402719428036e+06  3.2883473242963580e+06  3.2228522205184405e+06  3.1409792058963738e+06  3.0365470234245122e+06  2.9224045705520897e+06  2.8053527630147655e+06  2.6898899137691483e+06  2.5750259753658012e+06  2.4604259086158299e+06  2.3483341091102264e+06  2.2378576555328788e+06  2.1285814410286751e+06  2.0210754823902922e+06  1.9155135402937455e+06  1.8101695868586067e+06  1.7075860690068293e+06  1.6071113531968002e+06  1.5078935524568416e+06  1.4104329066919656e+06  1.3153676255723627e+06  1.2219013637139774e+06  1.1305359835035843e+06  1.0411455123481497e+06  9.5413966155782843e+05  8.6954436807799700e+05  7.8644683211098320e+05  7.0691110008212517e+05  6.2953043452443718e+05  5.5535814770345157e+05  4.8430120488472184e+05  4.1592994337987684e+05  3.5135868216083117e+05  2.9103231314205570e+05  2.3506975060748396e+05  1.8350442440758116e+05  1.3612416724345330e+05  9.5350368794786642e+04  6.2550875033241486e+04  4.0187733339509861e+04  2.4888863501004882e+04  1.3004797301318198e+04  3.4113695589658587e+03  2.2394698545291972e+03  9.7675779795998806e+03  1.4095282726541114e+04  1.6111001492873664e+04  1.6317352430127612e+04  1.4883134123668460e+04  1.2070180120874758e+04  8.2086588827465257e+03  3.9412554074201148e+03  6.6243690772056004e+02  6.6254149015456017e+02  3.9930163956019032e+03  8.2578278933142756e+03  1.2088463829519887e+04  1.4875532007198961e+04  1.6174449067778331e+04  1.5949866828320122e+04  1.3940773960982437e+04  8.9321368507808384e+03  1.4152727671216355e+03  4.3043065335032952e+03  1.4035254400800644e+04  2.6087364623178870e+04  4.1632586881053154e+04  6.4428906434459292e+04  9.7609341563444774e+04  1.3723504838750846e+05  1.8131493791736994e+05  2.3022908461069179e+05  2.8194763284603221e+05  3.3573828250087966e+05  3.9164028285733378e+05  4.4902036582796037e+05  5.0719209887306194e+05  5.6621452775968134e+05  6.2524373039564188e+05  6.8405531821241183e+05  7.4198730319633416e+05  7.9930529229162075e+05  8.5551585195712070e+05  9.1038492829565529e+05  9.6356487336091767e+05  1.0158597385756132e+06  1.0657211103358876e+06  1.1137791225885705e+06  1.1598501558959302e+06  1.2043374525947794e+06  1.2462539803635669e+06  1.2861089115921655e+06  1.3237754782525811e+06  1.3591353013678025e+06  1.3927512743930472e+06  1.4238897414217039e+06  1.4524832506806089e+06  1.4790211502686501e+06  1.5039848499399922e+06  1.5263116437344565e+06  1.5466799998652609e+06  1.5648284446247523e+06  1.5808953240419724e+06  1.5948899447896306e+06  1.6068647199472687e+06  1.6168143111244123e+06  1.6247580406169279e+06  1.6307841047691912e+06  1.6347372959223525e+06  1.6366067464298157e+06  1.6366175159622221e+06  1.6347743926160485e+06  1.6307719098164572e+06  1.6248078760457390e+06  1.6169491971418704e+06  1.6069823673425866e+06  1.5949379298110225e+06  1.5808986470987396e+06  1.5646317442038609e+06  1.5465528529937963e+06  1.5264035759353333e+06  1.5040109762125539e+06  1.4792354640073194e+06  1.4526634459240125e+06  1.4235389471863816e+06  1.3926927607182625e+06  1.3593647027157221e+06  1.3238680159706245e+06  1.2862533148575034e+06  1.2462059126904593e+06  1.2042976858849288e+06  1.1601743679467256e+06  1.1140469271969851e+06  1.0655856002281280e+06  1.0157337028753646e+06  9.6341050033882796e+05  9.1032294812013244e+05  8.5542070269824483e+05  7.9920545230845432e+05  7.4196642118448974e+05  6.8398862367020745e+05  6.2516256601201813e+05  5.6610776703508827e+05  5.0718668823130627e+05  4.4900804180400848e+05  3.9160211274905427e+05  3.3571015871578112e+05  2.8192985109141306e+05  2.3040006370251926e+05  1.8192659555252918e+05  1.3720349709920539e+05  9.7608222302622671e+04  6.4461113325480037e+04  4.1602288488626764e+04  2.6085413208569742e+04  1.4033323238937068e+04  4.3058265935036961e+03  1.4137977353430144e+03  8.9315602654436116e+03  1.3939449990258012e+04  1.5950342299998767e+04  1.6176740477967689e+04  1.4875505540250999e+04  1.2088183401641269e+04  8.2575774077267779e+03  3.9928661676921429e+03  6.6249814542552144e+02  6.6239965710831950e+02  3.9410957450770425e+03  8.2083419690219616e+03  1.2069741024779500e+04  1.4882645838335913e+04  1.6316892162943368e+04  1.6110644165954918e+04  1.4095080042307907e+04  9.7677262110363063e+03  2.2399772130137403e+03  3.4107172219786557e+03  1.3003825845045660e+04  2.4887534667859967e+04  4.0185994561438376e+04  6.2548498232912701e+04  9.5347023233856671e+04  1.3611554676357305e+05  1.8347007347455315e+05  2.3497725645633313e+05  2.9104942758340685e+05  3.5130537613838178e+05  4.1582169686682191e+05  4.8429314795933658e+05  5.5534740286839416e+05  6.2956822806442610e+05  7.0673440169059881e+05  7.8636858858823637e+05  8.6953086094723328e+05  9.5411685104261676e+05  1.0410721351926819e+06  1.1304206373311039e+06  1.2215387535252904e+06  1.3152826754839136e+06  1.4103070157370281e+06  1.5078646052601433e+06  1.6070922325413418e+06  1.7075912585150492e+06  1.8104671021103770e+06  1.9149865403577073e+06  2.0209276033151513e+06  2.1284403052682574e+06  2.2378153544412237e+06  2.3483052985227988e+06  2.4603998242035387e+06  2.5751221257003988e+06  2.6897595708294054e+06  2.8052973085304052e+06  2.9226615729159676e+06  3.0365326037576641e+06  3.1410219252381315e+06  3.2229041139105991e+06  3.2883915170274237e+06  3.3439831948280758e+06  3.3947468382648621e+06  3.4425850718132458e+06  3.4884725946345944e+06  3.5271926611136962e+06  3.5569404208255382e+06  3.5776774102900513e+06  3.5830839622368957e+06  3.5538824088419811e+06  3.5074758212375725e+06  3.6252108371077511e+06  3.6633655960788531e+06  4.3834651969271135e+06  3.8066026603603926e+06  3.3619325076748454e+06  3.0009456251256466e+06  2.7206760442812163e+06  2.4474161351924906e+06  2.2027666288979324e+06  1.9556125648410202e+06  1.7304579937140543e+06  1.5102557519862512e+06  1.2827959471182679e+06  1.0687424918119111e+06  8.6041783928458951e+05  6.5195247795859678e+05  4.2874765444709075e+05  1.8657996438692443e+05  1.0648076079971483e+04  1.0298117160946060e+04  2.1763545679684455e+05  5.0349983088071237e+05  7.9298091947955557e+05  1.0356926637025920e+06  1.2143489109191634e+06  1.3033443975023404e+06  1.3243189233839980e+06  1.2838947959393524e+06  1.1958835210049648e+06  1.0712665811064783e+06  9.2371393689470517e+05  7.5862506581088924e+05  5.8432194911126327e+05  3.9496462742896128e+05  1.6046994624393017e+05  -4.7380416438824304e+03  1.5515220999841244e+05  3.2644516227163858e+05  4.9045898021702742e+05  6.4670541569922213e+05  7.9501283835354098e+05  9.3383781782276463e+05  1.0671784279162816e+06  1.1899780213558429e+06  1.3061557584610004e+06  1.4142336204120158e+06  1.5145606757682208e+06  1.6075269926188560e+06  1.6944740786570013e+06  1.7750365310231263e+06  1.8489599049136015e+06  1.9184466730527943e+06  1.9803378246873629e+06  2.0388080644139466e+06  2.0916320514875241e+06  2.1395199053007145e+06  2.1830821823902694e+06  2.2225739105215902e+06  2.2579997552924026e+06  2.2892372334856372e+06  2.3171910211438653e+06  2.3411081707086582e+06  2.3624909078624030e+06  2.3801274145143698e+06  2.3945778451551520e+06  2.4060774584787544e+06  2.4146706001455123e+06  2.4203429213352501e+06  2.4230812551002009e+06  2.4228740709631382e+06  2.4200642193794362e+06  2.4141754785094718e+06  2.4053105753254239e+06  2.3930230226232498e+06  2.3788118190045659e+06  2.3610300806900272e+06  2.3394584637576207e+06  2.3154019069258701e+06  2.2875433698716401e+06  2.2560710982836811e+06  2.2208195221902900e+06  2.1814045826817779e+06  2.1380014794939845e+06  2.0903336671907157e+06  2.0377805062562684e+06  1.9796345411024038e+06  1.9180831067450317e+06  1.8489345648573705e+06  1.7753224866964521e+06  1.6949987523236633e+06  1.6082169072717908e+06  1.5153176404377148e+06  1.4149399164672245e+06  1.3067699802815234e+06  1.1904814836229288e+06  1.0675037677309518e+06  9.3402848187377397e+05  7.9510730476462131e+05  6.4671665487920074e+05  4.9042888849582867e+05  3.2639831577937066e+05  1.5509356745990322e+05  -4.7500361939965987e+03  1.6056151946925948e+05  3.9504801069411321e+05  5.8440522346007428e+05  7.5871218097325345e+05  9.2379968673948513e+05  1.0713473806785499e+06  1.1959327732943867e+06  1.2838923857118157e+06  1.3243393120605513e+06  1.3033484368342066e+06  1.2152287722955639e+06  1.0359081713180842e+06  7.9296105990228604e+05  5.0349357736146054e+05  2.1762910158539505e+05  1.0297373626818049e+04  4.6887646673271200e+06  3.9872815905225547e+06  4.5830289875109475e+06  3.6421526239835913e+06  3.5673496324707218e+06  3.8249939017378399e+06  3.1034522021515961e+06  3.3578266174986102e+06  2.8446413136446550e+06  3.2451329158465764e+06  2.9987364169151969e+06  2.7855533992614090e+06  2.7984020740946168e+06  2.1629113976928680e+06  2.6333700538938502e+06  2.5691598001740649e+06  2.2143078183104419e+06  2.4095334134112564e+06  2.3646240625590687e+06  2.0624264502205527e+06  2.2882777631618669e+06  1.7612864431242566e+06  2.0735285013406379e+06  2.2982270656233774e+06  1.9952389269538522e+06  1.8029534678482867e+06  1.8840082443205963e+06  2.1057315714807892e+06  1.9625332166908139e+06  1.8915108678673967e+06  1.3775288170731987e+06  2.0659505744355288e+06  2.0230739848126348e+06  1.7155540311464914e+06  1.6793955369323839e+06  1.7403410246556753e+06  1.8172530715550331e+06  1.6626666004611005e+06  1.6768152670676874e+06  1.5161631892523237e+06  1.8043869382200344e+06  1.7472964722668268e+06  1.7550074841166632e+06  1.3787168729984513e+06  1.5315007281265608e+06  1.8499881848509731e+06  1.3422811695024036e+06  1.5892905169558274e+06  1.2825498980602541e+06  1.3302716748668845e+06  1.6712876528750032e+06  1.6030892898666095e+06  1.5544862819715331e+06  1.2403739143405920e+06  1.7178206268059453e+06  1.2634071596047871e+06  1.2747562315667477e+06  1.1433253852499719e+06  1.5250148191275897e+06  1.7247649624942329e+06  1.2675792403061925e+06  1.0953566456969900e+06  1.1963249977899885e+06  1.4978782859181762e+06  1.1726100704154088e+06  1.2007662781142259e+06  1.2150420188676319e+06  1.1919448482403012e+06  1.4855694793085570e+06  1.1514048259471117e+06  1.0794078710164225e+06  1.0671425841609377e+06  1.5812887389023970e+06  1.0609362723848522e+06  1.1231152652599721e+06  1.2418354332735881e+06  1.6519040625956007e+06  1.2689483059958930e+06  9.2175260399671923e+05  1.0531564602451271e+06  1.3168532341738883e+06  1.4408708493168240e+06  1.0855754927787080e+06  1.1175464814610798e+06  1.1354764587691431e+06  1.3097094368106897e+06  1.0065301341871455e+06  1.4601469565875547e+06  1.0119817883956422e+06  1.2698923274878538e+06  1.1941312859020459e+06  1.0584681732260028e+06  1.2772878197533556e+06  1.1142994627882277e+06  1.3585191708879082e+06  1.1417933583048130e+06  1.4123006634365609e+06  9.7332532751935953e+05  1.0021360902460931e+06  1.3687488718446568e+06  1.3639877866829685e+06  9.9104561155408237e+05  9.6167541792351590e+05  1.0406336195535879e+06  1.5893029971775308e+06  1.0839558292154798e+06  1.0428090798993305e+06  1.0886115325712867e+06  1.3385189658596318e+06  1.0530521576218850e+06  1.0160452890054800e+06  1.0535620697423061e+06  1.3626835274994425e+06  1.1589250675164040e+06  1.0876338247145889e+06  1.1177212384535733e+06  1.0774143684331391e+06  1.3510175557430706e+06  1.3224850324264814e+06  1.0011635063742471e+06  1.0605709933070987e+06  1.5896791972897865e+06  1.0148694775396222e+06  1.0308133469463309e+06  1.1159258754089931e+06  1.0623792663638932e+06  1.5035046223418426e+06  1.0630907502267307e+06  9.8788124536956009e+05  1.0878216246595399e+06  1.4809105645120889e+06  1.1222752284592353e+06  1.1098337780018281e+06  1.2097983660207535e+06  1.3728514168772853e+06  1.4585104337983378e+06  1.3571049188188845e+06  1.1011805784085204e+06  1.3566634637748564e+06  1.1178425056378252e+06  1.5542527004179053e+06  1.3408873737422219e+06  1.0745384096129043e+06  1.4039838272670219e+06  1.1964316187429724e+06  1.8024914965553049e+06  1.3396163709731128e+06  1.3021628362941700e+06  1.3998485272556290e+06  1.4371786382017769e+06  1.5879846143459545e+06  1.5618309873311657e+06  1.2810529048255868e+06  1.7334263147984846e+06  1.3759543979055460e+06  1.5156128957420159e+06  1.4228862327168130e+06  1.8015826166592641e+06  1.7323577948252109e+06  1.5223331793282395e+06  1.6776582042730281e+06  1.6558050575914329e+06  1.7921427459862097e+06  1.7412369286342885e+06  1.6797011442315998e+06  1.7155975190198105e+06  2.0230988177571679e+06  2.0661182934214207e+06  1.3774261414778661e+06  1.8925073280712184e+06  1.9661171855937392e+06  2.1096710179711767e+06  1.7867121278838003e+06  1.9267744676636243e+06  1.9166798243111446e+06  2.4031271099232160e+06  2.0867469878218847e+06  1.7583125052477780e+06  2.2699041078542043e+06  2.0473149569944730e+06  2.3712667570306109e+06  2.4082182419971218e+06  2.2099939742472912e+06  2.5713782252469934e+06  2.6923204854627033e+06  2.0871179831314222e+06  2.8081356904977923e+06  2.7811783060824363e+06  2.9937935936447354e+06  3.2435838504867372e+06  2.8439325321713625e+06  3.3567616110629146e+06  3.1029546175344111e+06  3.8405582130829724e+06  3.5726718763436181e+06  3.6514547099703285e+06  4.5793682959892619e+06  3.9871539515600661e+06  4.6887458183368519e+06  5.9525697799918998e+05  6.0087191511600511e+05  3.9167321130181372e+05  1.1004674233893168e+06  1.0889400608193397e+06  4.3400394416837010e+05  4.3386345208283246e+05  1.6122159088133697e+06  1.1894597150381093e+06  1.1979638395852654e+06  5.2518257004193286e+05  5.2616012983164180e+05  8.6568795835286414e+05  8.6680156462109135e+05  1.1052882090515846e+06  1.1052282878626031e+06  2.0345461129191101e+06  3.2634942447873106e+05  3.2684394145491428e+05  5.7001587893997715e+05  2.0741307634263404e+06  1.5444708375235954e+06  1.5444508256696656e+06  1.9430184159715676e+06  1.9611306412241303e+06  1.8962469413261628e+06  1.8940370782930362e+06  8.1103560339645413e+05  8.1270180231150961e+05  9.4004619316042087e+05  9.3509641093089757e+05  2.2284690837446856e+06  2.2335759337358810e+06  3.6476242942385917e+05  3.9058212550996605e+05  2.3832523218866223e+06  2.5546480528960750e+06  2.4929632527149916e+06  2.6348005970645915e+06  2.5958912496579494e+06  8.5833085551812954e+05  8.5544675648007530e+05  1.8100720053975701e+06  1.8100992908847488e+06  2.5574464611595464e+06  8.4948777406397345e+05  8.5418763317851920e+05  9.1252049718034302e+05  9.2339070357512438e+05  2.6746738743732115e+06  2.5863811763068237e+06  2.4336509076483478e+05  2.2026317953499421e+06  2.1890653596261260e+06  7.5421098346963886e+05  7.5340769083660410e+05  9.1339109881401272e+05  2.6374175590482503e+06  2.3382123569180947e+05  4.8486103262757196e+05  5.7969054749630776e+05  8.8968375675446889e+05  5.8152426903600222e+05  6.2690147314978647e+05  6.6098390868356405e+05  6.5853235920711572e+05  8.1893437101771613e+05  8.1449736660706159e+05  8.5664559134125384e+05  8.5657481970499607e+05  2.3865705228367918e+06  2.3863459322041506e+06  2.6641507024728269e+06  8.9490732814553572e+04  8.9500380185004964e+04  2.5895220053455215e+06  2.5935827435939414e+06  8.0461771224883373e+05  8.1520369693234586e+05  2.7891478667789861e+06  1.8084109667898389e+06  2.5433253112086500e+06  2.5161964911759747e+06  2.5600690295316000e+06  2.5715805037607490e+06  6.0827552826284245e+05  6.0790573516225279e+05  1.9186725433570304e+05  4.7549851153324993e+05  1.7540603619932684e+06  4.7843387393980182e+05  6.3275421364401397e+05  9.1750102398799942e+05  9.1845248607428477e+05  6.4324489485066046e+05  1.0288443041337134e+06  1.0875891773206543e+06  1.0776124805994758e+06  6.7314476122223283e+05  2.8211107225403418e+06  2.6683015611393536e+06  2.6791977599687739e+06  4.7692739040550974e+05  8.6894852831374761e+05  2.7536388538721087e+06  8.6916691312898602e+05  1.5806741454524177e+06  1.5807796206376604e+06  2.7933372490350851e+06  5.8315342462519580e+05  4.6000399079758191e+05  2.7781524334043949e+06  1.1720680151473859e+06  1.5815354044351139e+05  1.6094884872998518e+05  2.1358881428633397e+06  1.6999583012685931e+05  1.6998900886506823e+05  5.3526338338181877e+05  5.3603162527144537e+05  1.1546744183858458e+06  1.4555565049827804e+06  1.4559499193806583e+06  6.9786947843745258e+05  2.0732658671354137e+06  1.5681750562233271e+06  9.4858973668698594e+05  9.4877207533912442e+05  6.9122286439362366e+05  7.8081034687496396e+05  7.7862302591994056e+05  2.8716198913062750e+06  2.8613072414748496e+06  1.5984248414316564e+06  2.8618037974713002e+06  5.2223858649190515e+05  1.4795181394921676e+06  1.9345111387595150e+06  1.8462080038961624e+06  1.0525080236975597e+06  1.0509285439809104e+06  1.3977114156662165e+06  8.6228685784815962e+05  8.6288592544554942e+05  2.8742946412748052e+06  1.1242243427233642e+06  8.4731082745482167e+05  3.5736388698886742e+05  7.1044632530123380e+05  4.8309338002366910e+05  7.8126041157182516e+05  7.8208646426818136e+05  2.8680276082134768e+06  3.1226852291532810e+05  2.8220694592980146e+06  2.4247105801201705e+06  2.8741994997987309e+06  8.1198779443462414e+05  8.1182102587289782e+05  4.5341020268480596e+05  7.8778698455720139e+05  7.8058307706558099e+05  4.6100011627224804e+05  2.2688170277480897e+06  2.2693914402225548e+06  6.3754468955692241e+05  3.9503991449492204e+05  7.2992389543957449e+05  3.9523235106569005e+05  7.3844846460317750e+05  2.5065207894945377e+06  5.7014307154932769e+05  2.9240555035212184e+06  4.6187459399548866e+05  4.4438940109828097e+05  5.6709961629365000e+05  1.5643217448511028e+06  4.4366049216447154e+05  1.8770047775473001e+06  1.8770024390323560e+06  2.8697397906136806e+06  7.1500054759747756e+05  7.1882435210064077e+05  2.5020924924393203e+06  7.1975919421919773e+05  3.0052568836872978e+06  3.0093540185092539e+06  1.0383992758055965e+06  1.0277401153738424e+06  1.2183480527476855e+06  1.2183703860449677e+06  2.9356454688537475e+06  2.9462923597688391e+06  2.3180010716017047e+06  3.0511487485952871e+06  3.0139842717154077e+06  2.2301345077038938e+06  2.2770121655342369e+06  2.9400879185075718e+06  2.9011234650489292e+06  2.9012661798739126e+06  9.2854788962846179e+05  9.0991419335363200e+05  1.1758697828670186e+06  2.9086883550760807e+06  7.8907080725374515e+05  1.1275247585204253e+04  1.1275990132911209e+04  1.0083233564728375e+06  7.7851474944536574e+05  2.9112417960954970e+06  2.9119171266196705e+06  3.3699100825022062e+05  1.0000576572901587e+06  2.5313599836750790e+06  2.9314067840138362e+06  2.3441212013108097e+06  7.4348695828503894e+05  5.2388367037989391e+05  1.5422832161479581e+06  2.3408990764983594e+06  7.6694562062212080e+05  1.1800029141596870e+06  8.6519448834276176e+05  8.6196996743902704e+05  7.3144079268228274e+05  2.9459812479764270e+06  2.4039143109867051e+06  7.2173348043089826e+05  8.0934092897088674e+05  2.9581623322260100e+06  1.5672875869235274e+05  3.5140500422694918e+05  4.6842265247453260e+05  1.3361360883813638e+06  4.6863356613752100e+05  2.9691747014831565e+06  8.1315910297603486e+05  2.4592079537814198e+05  1.3663970102073313e+06  1.3589552495866248e+06  8.0703395347261033e+05  2.1938844456646731e+06  2.1941515891576465e+06  5.6469916731117514e+05  5.6480023514467198e+05  1.9195260629212006e+06  4.4459851638209663e+05  1.9664178