<?xml version="1.0"?>
<VTKFile type="UnstructuredGrid"  version="0.1"  >
<UnstructuredGrid>
<Piece  NumberOfPoints="4907" NumberOfCells="23037">
<Points>
<DataArray  type="Float64"  NumberOfComponents="3"  format="ascii">0 0 0  0 0 0.2  0 1 0.2  0 1 0  1 0 0  1 0 0.2  1 1 0.2  1 1 0  0 0 1.2  0 1 1.2  1 0 1.2  1 1 1.2  0 0 0.04174546103309369  0 0 0.0816025948422595  0 0 0.1210831716649333  0 0 0.1605415858324667  0 0.04761904761904758 0.2  0 0.09523809523809519 0.2  0 0.1428571428571428 0.2  0 0.1904761904761904 0.2  0 0.2380952380952379 0.2  0 0.2857142857142854 0.2  0 0.3333333333333329 0.2  0 0.3809523809523804 0.2  0 0.4285714285714278 0.2  0 0.4761904761904753 0.2  0 0.5238095238095228 0.2  0 0.5714285714285703 0.2  0 0.6190476190476177 0.2  0 0.6666666666666653 0.2  0 0.7142857142857126 0.2  0 0.7619047619047602 0.2  0 0.809523809523808 0.2  0 0.857142857142856 0.2  0 0.9047619047619041 0.2  0 0.952380952380952 0.2  0 1 0.04174120080615058  0 1 0.08159825427264648  0 1 0.1210800795676872  0 1 0.1605400397838436  0 0.05263185666989595 0  0 0.1052634292045066 0  0 0.1578949753019255 0  0 0.2105265606867653 0  0 0.2631580972815438 0  0 0.3157896914200624 0  0 0.3684212218414297 0  0 0.4210528211899031 0  0 0.4736843485186084 0  0 0.5263159496365281 0  0 0.5789474769632287 0  0 0.631579076316224 0  0 0.6842106067321163 0  0 0.7368422008778577 0  0 0.7894737374642301 0  0 0.8421053228608164 0  0 0.8947368689458203 0  0 0.9473684414967007 0  1 0 0.04174120080615058  1 0 0.08159825427264648  1 0 0.1210800795676872  1 0 0.1605400397838436  1 0.04761904761904758 0.2  1 0.09523809523809519 0.2  1 0.1428571428571428 0.2  1 0.1904761904761904 0.2  1 0.2380952380952379 0.2  1 0.2857142857142854 0.2  1 0.3333333333333329 0.2  1 0.3809523809523804 0.2  1 0.4285714285714278 0.2  1 0.4761904761904753 0.2  1 0.5238095238095228 0.2  1 0.5714285714285703 0.2  1 0.6190476190476177 0.2  1 0.6666666666666653 0.2  1 0.7142857142857126 0.2  1 0.7619047619047602 0.2  1 0.809523809523808 0.2  1 0.857142857142856 0.2  1 0.9047619047619041 0.2  1 0.952380952380952 0.2  1 1 0.0417369476568315  1 1 0.08159392147315059  1 1 0.1210769942716541  1 1 0.160538497135827  1 0.05263185629002039 0  1 0.1052634288334169 0  1 0.1578949749757635 0  1 0.2105265603517968 0  1 0.2631580970045133 0  1 0.3157896911222401 0  1 0.3684212216099975 0  1 0.4210528209305459 0  1 0.4736843483298758 0  1 0.526315949417448 0  1 0.5789474768147793 0  1 0.6315790761398384 0  1 0.6842106066221353 0  1 0.7368422007470659 0  1 0.7894737373913995 0  1 0.8421053227791465 0  1 0.8947368689091119 0  1 0.9473684414687341 0  0.05263185666989595 0 0  0.1052634292045066 0 0  0.1578949753019255 0 0  0.2105265606867653 0 0  0.2631580972815438 0 0  0.3157896914200624 0 0  0.3684212218414297 0 0  0.4210528211899031 0 0  0.4736843485186084 0 0  0.5263159496365281 0 0  0.5789474769632287 0 0  0.631579076316224 0 0  0.6842106067321163 0 0  0.7368422008778577 0 0  0.7894737374642301 0 0  0.8421053228608164 0 0  0.8947368689458203 0 0  0.9473684414967007 0 0  0.04761904761904758 0 0.2  0.09523809523809519 0 0.2  0.1428571428571428 0 0.2  0.1904761904761904 0 0.2  0.2380952380952379 0 0.2  0.2857142857142854 0 0.2  0.3333333333333329 0 0.2  0.3809523809523804 0 0.2  0.4285714285714278 0 0.2  0.4761904761904753 0 0.2  0.5238095238095228 0 0.2  0.5714285714285703 0 0.2  0.6190476190476177 0 0.2  0.6666666666666653 0 0.2  0.7142857142857126 0 0.2  0.7619047619047602 0 0.2  0.809523809523808 0 0.2  0.857142857142856 0 0.2  0.9047619047619041 0 0.2  0.952380952380952 0 0.2  0.05263185629002039 1 0  0.1052634288334169 1 0  0.1578949749757635 1 0  0.2105265603517968 1 0  0.2631580970045133 1 0  0.3157896911222401 1 0  0.3684212216099975 1 0  0.4210528209305459 1 0  0.4736843483298758 1 0  0.526315949417448 1 0  0.5789474768147793 1 0  0.6315790761398384 1 0  0.6842106066221353 1 0  0.7368422007470659 1 0  0.7894737373913995 1 0  0.8421053227791465 1 0  0.8947368689091119 1 0  0.9473684414687341 1 0  0.04761904761904758 1 0.2  0.09523809523809519 1 0.2  0.1428571428571428 1 0.2  0.1904761904761904 1 0.2  0.2380952380952379 1 0.2  0.2857142857142854 1 0.2  0.3333333333333329 1 0.2  0.3809523809523804 1 0.2  0.4285714285714278 1 0.2  0.4761904761904753 1 0.2  0.5238095238095228 1 0.2  0.5714285714285703 1 0.2  0.6190476190476177 1 0.2  0.6666666666666653 1 0.2  0.7142857142857126 1 0.2  0.7619047619047602 1 0.2  0.809523809523808 1 0.2  0.857142857142856 1 0.2  0.9047619047619041 1 0.2  0.952380952380952 1 0.2  0 0 0.2461970796399709  0 0 0.2923941592799418  0 0 0.3387243945289861  0 0 0.3863481971058656  0 0 0.441574291840575  0 0 0.5167179017297259  0 0 0.6080084217625917  0 0 0.7000607423740808  0 0 0.7921130629855704  0 0 0.8833936912693379  0 0 0.958474687985821  0 0 1.013662897466742  0 0 1.061277468163518  0 0 1.107605840720058  0 0 1.153802920360029  0 0.04620089013637435 1.2  0 0.09240178027274873 1.2  0 0.1387340666778921 1.2  0 0.1863534125777873 1.2  0 0.2415515669041398 1.2  0 0.3166497522562728 1.2  0 0.4079400865917501 1.2  0 0.4999999999999992 1.2  0 0.5920599134082489 1.2  0 0.6833502477437277 1.2  0 0.7584484330958612 1.2  0 0.8136465874222131 1.2  0 0.8612659333221084 1.2  0 0.9075982197272515 1.2  0 0.9537991098636257 1.2  0 1 0.2461989855902354  0 1 0.2923979711804708  0 1 0.338729230651963  0 1 0.3863508010351772  0 1 0.4415629154477985  0 1 0.5166838010142994  0 1 0.6079742415867959  0 1 0.7000303599955955  0 1 0.7920864784043957  0 1 0.8833719615023048  0 1 0.9584615557035236  0 1 1.013654739687037  0 1 1.061271698617583  0 1 1.107602028819529  0 1 1.153801014409765  1 0 0.2461989855902354  1 0 0.2923979711804708  1 0 0.338729230651963  1 0 0.3863508010351772  1 0 0.4415629154477985  1 0 0.5166838010142994  1 0 0.6079742415867959  1 0 0.7000303599955955  1 0 0.7920864784043957  1 0 0.8833719615023048  1 0 0.9584615557035236  1 0 1.013654739687037  1 0 1.061271698617583  1 0 1.107602028819529  1 0 1.153801014409765  1 0.04620089013637435 1.2  1 0.09240178027274873 1.2  1 0.1387340666778921 1.2  1 0.1863534125777873 1.2  1 0.2415515669041398 1.2  1 0.3166497522562728 1.2  1 0.4079400865917501 1.2  1 0.4999999999999992 1.2  1 0.5920599134082489 1.2  1 0.6833502477437277 1.2  1 0.7584484330958612 1.2  1 0.8136465874222131 1.2  1 0.8612659333221084 1.2  1 0.9075982197272515 1.2  1 0.9537991098636257 1.2  1 1 0.2462008901363744  1 1 0.2924017802727488  1 1 0.3387340666778921  1 1 0.3863534125777873  1 1 0.4415515669041398  1 1 0.5166497522562729  1 1 0.6079400865917501  1 1 0.6999999999999993  1 1 0.7920599134082489  1 1 0.8833502477437276  1 1 0.9584484330958611  1 1 1.013646587422213  1 1 1.061265933322108  1 1 1.107598219727252  1 1 1.153799109863626  0.04620089013637435 0 1.2  0.09240178027274873 0 1.2  0.1387340666778921 0 1.2  0.1863534125777873 0 1.2  0.2415515669041398 0 1.2  0.3166497522562728 0 1.2  0.4079400865917501 0 1.2  0.4999999999999992 0 1.2  0.5920599134082489 0 1.2  0.6833502477437277 0 1.2  0.7584484330958612 0 1.2  0.8136465874222131 0 1.2  0.8612659333221084 0 1.2  0.9075982197272515 0 1.2  0.9537991098636257 0 1.2  0.04620089013637435 1 1.2  0.09240178027274873 1 1.2  0.1387340666778921 1 1.2  0.1863534125777873 1 1.2  0.2415515669041398 1 1.2  0.3166497522562728 1 1.2  0.4079400865917501 1 1.2  0.4999999999999992 1 1.2  0.5920599134082489 1 1.2  0.6833502477437277 1 1.2  0.7584484330958612 1 1.2  0.8136465874222131 1 1.2  0.8612659333221084 1 1.2  0.9075982197272515 1 1.2  0.9537991098636257 1 1.2  0 0.9174203787135049 0.1010896692581779  0 0.08257690981217558 0.1010920585602483  0 0.5003347012163113 0.09565480466245233  0 0.3579071766958429 0.09631703302957953  0 0.6420928291374743 0.09631703607735745  0 0.7797243043371342 0.09849240320516567  0 0.220275227758233 0.09849233697481148  0 0.4268464014745006 0.1284871159603801  0 0.5731535943684238 0.1284870983365682  0 0.2841265102942263 0.1238838186526207  0 0.7158734919473514 0.1238838322173073  0 0.1554683790886158 0.1339575345114501  0 0.8445307903512863 0.1339581342305768  0 0.9444621098867192 0.1359180582078391  0 0.05553720246298189 0.1359202242337109  0 0.9401614251164596 0.06279517424423481  0 0.0598351779806777 0.0627979087993995  0 0.8457902645368612 0.0669343049214856  0 0.1542034570137356 0.0669338751208392  0 0.5529180418081218 0.06043032485893841  0 0.4479426682054376 0.06043034702832769  0 0.3050139349097219 0.0634147356768288  0 0.6949860480610121 0.06341476675675931  0 0.6103041139833327 0.05457483750491998  0 0.3898393980382283 0.05457483760355085  0 0.2483167591694456 0.05531626873508918  0 0.7516831989138379 0.05531633004224915  0 0.5000243949350056 0.1528906184260129  0 0.356905663777464 0.1538031869780879  0 0.6430943380144255 0.153803183295887  0 0.7936079707701743 0.1495044843464697  0 0.2063917227884478 0.1495040620561747  0 0.5014334863978778 0.04515118315392459  0 0.8868510505303583 0.151854759346357  0 0.1131479584394105 0.1518554113123985  0 0.1067710026743579 0.05483251004207659  0 0.8932234602499247 0.05483140958899774  0 0.9630801830434279 0.09402516051499732  0 0.03691850472715916 0.09402833100637134  0 0.1864190906944772 0.05047276525697718  0 0.8135787394375114 0.05047347537625282  0 0.4052969353708534 0.1624138976780648  0 0.5947030640667258 0.162413889615952  0 0.4520244509474903 0.1621610767324497  0 0.547977665464181 0.1621610771326269  0 0.2619047619047616 0.1623800002027558  0 0.7380952380952355 0.1623800020535282  0 0.6904761904761891 0.1624095023381347  0 0.3095238095238091 0.1624095028318688  0 0.347394284581057 0.04286132126199183  0 0.6526345348460318 0.04286132806780735  0 0.590431341562359 0.09429418562442766  0 0.4097360281331379 0.09429420199772316  0 0.2555360372748897 0.09625257533441421  0 0.7444639791616308 0.09625262361767567  0 0.469138862302742 0.1256691554545492  0 0.5308611349892361 0.1256691586025259  0 0.3257362561065827 0.1258537959103161  0 0.6742637516126684 0.1258537964090386  0 0.1763614295507573 0.1000288143999907  0 0.82363627848580
[...]
<PointData  Vectors="U [m]"> 
<DataArray  type="Float64"  Name="U [m]"  NumberOfComponents="3" format="ascii">-8.8517052551302766e-05 1.8479387671397131e-05 -5.1416309623658930e-05  -6.9002552439755983e-05 6.8208207780791160e-06 -5.8423476736595045e-05  -6.9479679484672226e-05 -9.8248303320787197e-06 -5.9937643542839927e-05  -8.8916278520268020e-05 -2.2060682471065364e-05 -5.2926163570191959e-05  -1.2917051647497413e-04 1.8952091027725841e-05 -2.0857296715962503e-04  -8.5790799727306408e-05 7.2818540252667426e-06 -2.1554928267958088e-04  -8.6260134414833096e-05 -9.4625855951588002e-06 -2.1695492409559762e-04  -1.2956900192103479e-04 -2.1613058577366375e-05 -2.0994401793637696e-04  0.0000000000000000e+00 0.0000000000000000e+00 0.0000000000000000e+00  0.0000000000000000e+00 0.0000000000000000e+00 0.0000000000000000e+00  1.5934685451059012e-04 0.0000000000000000e+00 -1.5566403280897742e-04  1.6008332258937117e-04 0.0000000000000000e+00 -1.5861420472466076e-04  -8.4300899127305950e-05 1.6213556467930409e-05 -5.3086284837191959e-05  -8.0312329480068635e-05 1.3981564201489018e-05 -5.4577654067963544e-05  -7.6393085556526990e-05 1.1742700243971251e-05 -5.5962192599695236e-05  -7.2585185898579283e-05 9.4008817815950423e-06 -5.7259037260260675e-05  -6.9054788398886804e-05 5.9383646558429163e-06 -5.5613868545063938e-05  -6.9075815325616536e-05 5.0999871192772253e-06 -5.3226079797290454e-05  -6.9118109019439809e-05 4.2446949645080183e-06 -5.1089257133258972e-05  -6.9109292480376214e-05 3.4365042058555117e-06 -4.9252165416248057e-05  -6.9120261377110238e-05 2.5778515610000185e-06 -4.7665994493382425e-05  -6.9291146104016822e-05 1.8335980533385380e-06 -4.6398545127779761e-05  -6.9336716996135493e-05 1.0931375150518488e-06 -4.5380332409928118e-05  -6.9425433000878459e-05 3.3741320058817244e-07 -4.4639365664615263e-05  -6.9444846924947837e-05 -3.9075505410994270e-07 -4.4127149738137084e-05  -6.9557538875327849e-05 -1.1127137503320937e-06 -4.3990627963871729e-05  -6.9535322409529932e-05 -1.8604027971549785e-06 -4.4095089495758945e-05  -6.9544464962293639e-05 -2.6028148766610254e-06 -4.4385869343293570e-05  -6.9519137906843981e-05 -3.3388478065063594e-06 -4.4993704141146670e-05  -6.9495067821184200e-05 -4.0844601011520530e-06 -4.5880539947684526e-05  -6.9478327913560483e-05 -4.8396024413996472e-06 -4.7046227521621569e-05  -6.9367161788751113e-05 -5.6015389407162916e-06 -4.8417820450040318e-05  -6.9389948192369506e-05 -6.4387373686431308e-06 -5.0175577614580935e-05  -6.9427251843838669e-05 -7.2539739843354894e-06 -5.2159008682935867e-05  -6.9436100706954268e-05 -8.0963042285320489e-06 -5.4430906086975969e-05  -6.9461532314395164e-05 -8.9398340989395283e-06 -5.6972439600858722e-05  -8.4711754694753600e-05 -1.9684148993222592e-05 -5.4587972363628462e-05  -8.0735544950715675e-05 -1.7352351085708492e-05 -5.6066140085481560e-05  -7.6849440731359159e-05 -1.4983869771423469e-05 -5.7422260038756587e-05  -7.3033913151211225e-05 -1.2533692967416253e-05 -5.8740039549454291e-05  -8.8572872455400586e-05 1.6416467122674766e-05 -4.8611029240982356e-05  -8.8609960111138398e-05 1.4281537568982437e-05 -4.6038875525577475e-05  -8.8640146862050304e-05 1.2065508967985234e-05 -4.3773344372118281e-05  -8.8675704108972299e-05 9.9325902735964647e-06 -4.1850987970238478e-05  -8.8710463110727511e-05 7.8049077572565431e-06 -4.0210044061677426e-05  -8.8711886281682577e-05 5.6000757597851019e-06 -3.8995641320238717e-05  -8.8744651379619747e-05 3.4871241652521904e-06 -3.8053855938040825e-05  -8.8788392071291439e-05 1.3505352813041882e-06 -3.7495932234626353e-05  -8.8831089469020060e-05 -7.8460825159841294e-07 -3.7238394446296289e-05  -8.8844009933603858e-05 -2.8173152037696369e-06 -3.7288985983569414e-05  -8.8832945487469275e-05 -4.9692525533388260e-06 -3.7711464241413078e-05  -8.8889346916079938e-05 -7.0981713608453960e-06 -3.8415967710425733e-05  -8.8895619377918334e-05 -9.2328812385556850e-06 -3.9523479552121477e-05  -8.8905280231097269e-05 -1.1437881077537068e-05 -4.0941130696299635e-05  -8.8923698903969897e-05 -1.3532642527400570e-05 -4.2693277499257682e-05  -8.8950162443908660e-05 -1.5665745314595956e-05 -4.4780629499347595e-05  -8.8953878977064677e-05 -1.7873825260687413e-05 -4.7210209081412323e-05  -8.8929774089663776e-05 -2.0001817365043575e-05 -4.9963928443806444e-05  -1.2027907648363775e-04 1.6660435163728700e-05 -2.1023925929533331e-04  -1.1172895262545920e-04 1.4433777069784049e-05 -2.1172082653188402e-04  -1.0322621930509080e-04 1.2209520963637829e-05 -2.1308582456927892e-04  -9.4636480230515788e-05 9.8874809633582164e-06 -2.1437570809893191e-04  -8.5796143424185183e-05 6.3933479547447600e-06 -2.1274557604115417e-04  -8.5873182989128362e-05 5.5331331939568381e-06 -2.1031210250772381e-04  -8.5852120833497360e-05 4.6702137163025805e-06 -2.0819279877430755e-04  -8.5830088789856120e-05 3.8922982329047603e-06 -2.0636652489007242e-04  -8.5893704543222902e-05 3.0324180809125813e-06 -2.0473910365000354e-04  -8.5766653456376674e-05 2.2889937281890316e-06 -2.0347408797263938e-04  -8.5731482296722670e-05 1.5216557669641296e-06 -2.0246100127662865e-04  -8.5724909741517532e-05 7.7780735713622227e-07 -2.0171407225592756e-04  -8.5666507868008854e-05 2.0214890837331284e-08 -2.0124128493855464e-04  -8.5786047723725831e-05 -7.1732416218199835e-07 -2.0100142221058000e-04  -8.5745808170678925e-05 -1.4318239930109118e-06 -2.0114482480075433e-04  -8.5826014367601660e-05 -2.1563801153829014e-06 -2.0138202723713603e-04  -8.5836889723532597e-05 -2.9017569347559656e-06 -2.0205301589733168e-04  -8.5936577554499667e-05 -3.6558158423826186e-06 -2.0290482649101016e-04  -8.5941033862538000e-05 -4.3986148796687232e-06 -2.0413078740087035e-04  -8.6088086109255895e-05 -5.1757319449812801e-06 -2.0548092218082236e-04  -8.6172287178828502e-05 -6.0062993367653939e-06 -2.0720500083394944e-04  -8.6115661686149216e-05 -6.8270256199555301e-06 -2.0919408405104071e-04  -8.6157375059732656e-05 -7.6826908957414086e-06 -2.1149219337855568e-04  -8.6208927305451595e-05 -8.5612087634522444e-06 -2.1399811116948480e-04  -1.2066863859155190e-04 -1.9248425655593210e-05 -2.1160563778162245e-04  -1.1216262431773353e-04 -1.6906589155196770e-05 -2.1308973670303028e-04  -1.0364137097992611e-04 -1.4547611219736953e-05 -2.1448083725749277e-04  -9.5057236393653548e-05 -1.2123167647494395e-05 -2.1577593453245972e-04  -1.2917123625476789e-04 1.6885678598098427e-05 -2.0576497529518193e-04  -1.2918688494802620e-04 1.4749928830659107e-05 -2.0318860335156620e-04  -1.2918260867554327e-04 1.2536803883259980e-05 -2.0089656152893869e-04  -1.2919035774382681e-04 1.0380085578807216e-05 -1.9895395825632930e-04  -1.2918881779815832e-04 8.2870366404058486e-06 -1.9734959087896531e-04  -1.2919547474922669e-04 6.0899025006340500e-06 -1.9608475448810956e-04  -1.2922353566846979e-04 3.9617473862886776e-06 -1.9512581099886993e-04  -1.2925087289155607e-04 1.8379049457871698e-06 -1.9453533208514253e-04  -1.2922505458720713e-04 -2.9150302911151963e-07 -1.9424396641363231e-04  -1.2926092464660559e-04 -2.4344527862984599e-06 -1.9434373512485816e-04  -1.2930472507329422e-04 -4.5393950459178642e-06 -1.9478191574141926e-04  -1.2931661737099385e-04 -6.6451106943027755e-06 -1.9549120604749393e-04  -1.2932996820209708e-04 -8.7636506526050032e-06 -1.9657465540510121e-04  -1.2936954709913726e-04 -1.0990866763942390e-05 -1.9795463340133046e-04  -1.2939426722928207e-04 -1.3096866387899052e-05 -1.9974556430228430e-04  -1.2944920045923134e-04 -1.5238076344252713e-05 -2.0184416298559389e-04  -1.2947018712267862e-04 -1.7449999918371446e-05 -2.0430135697902254e-04  -1.2953123750136312e-04 -1.9558463708018243e-05 -2.0701504947741496e-04  -9.0581778895602020e-05 1.8470450174872149e-05 -5.6810014759830917e-05  -9.2693781736353874e-05 1.8446498500226035e-05 -6.2413117068579291e-05  -9.4906037454031347e-05 1.8456853323166028e-05 -6.8308619903463113e-05  -9.7035780294833042e-05 1.8469362984272819e-05 -7.4563963194590897e-05  -9.9146947886031550e-05 1.8481377772340697e-05 -8.1135423610506971e-05  -1.0139220686247480e-04 1.8480392153062501e-05 -8.8071456976485370e-05  -1.0348852436645833e-04 1.8504157779398983e-05 -9.5294956899309139e-05  -1.0560471918433677e-04 1.8489205568987412e-05 -1.0291026137535612e-04  -1.0773714389866694e-04 1.8486414507178736e-05 -1.1081553954994569e-04  -1.0990292266506819e-04 1.8534400853246601e-05 -1.1906254959358809e-04  -1.1203887443286063e-04 1.8580077436400664e-05 -1.2771670328554988e-04  -1.1415516618064088e-04 1.8602588027341567e-05 -1.3663193041752990e-04  -1.1628719126526976e-04 1.8632582255159638e-05 -1.4595051332198347e-04  -1.1851318064057888e-04 1.8675312353972494e-05 -1.5555396449424075e-04  -1.2062822262535332e-04 1.8726268401776258e-05 -1.6551580614800773e-04  -1.2280893862390293e-04 1.8754345701377217e-05 -1.7579622113353505e-04  -1.2500025636624513e-04 1.8803482347131057e-05 -1.8646777995538083e-04  -1.2711156348380531e-04 1.8887240739817794e-05 -1.9741312084713033e-04  -6.9901293901794849e-05 6.7927653200343650e-06 -6.3041805673822709e-05  -7.0760262937970964e-05 6.8495687148088871e-06 -6.8060286859163480e-05  -7.1626136283603335e-05 6.8418738884937438e-06 -7.3293071438462857e-05  -7.2427934895361962e-05 6.8438098212631574e-06 -7.8862038793837790e-05  -7.3281301990435566e-05 6.8448758559980611e-06 -8.4665529705294523e-05  -7.4040687135773644e-05 6.7536407856144056e-06 -9.0807873822802080e-05  -7.4799010468073091e-05 6.7966608067344978e-06 -9.7203458109431287e-05  -7.5579261155683114e-05 6.7430550810015762e-06 -1.0375737861295756e-04  -7.6306946869814649e-05 6.7185033745197418e-06 -1.1073553087794641e-04  -7.7040519315774324e-05 6.7028204644164371e-06 -1.1800157272340315e-04  -7.7775000184602435e-05 6.7288235099939791e-06 -1.2551357995078827e-04  -7.8504805105882223e-05 6.7926627381534810e-06 -1.3319733489575869e-04  -7.9257174194930660e-05 6.8497825695849015e-06 -1.4123526856127779e-04  -8.0029228538510479e-05 6.9643503472609439e-06 -1.4950546807151278e-04  -8.0784309299920871e-05 6.9409814607506832e-06 -1.5810304753266201e-04  -8.1559834523590446e-05 7.0609846736265473e-06 -1.6692936026747944e-04  -8.2400036677340632e-05 7.1027748684350580e-06 -1.7610434794725115e-04  -8.3200523936278778e-05 7.1639672650871509e-06 -1.8553259782984690e-04  -8.4050232551719956e-05 7.1858604853702947e-06 -1.9526054358750958e-04  -8.4896418910246859e-05 7.2106292424013505e-06 -2.0522515933082001e-04  -9.0974851513049552e-05 -2.2008969388835114e-05 -5.8302089626794063e-05  -9.3093565258737886e-05 -2.1948331038030593e-05 -6.3896501316889137e-05  -9.5294563621763003e-05 -2.1909888993317423e-05 -6.9788059318109157e-05  -9.7473080888336671e-05 -2.1885727513758744e-05 -7.6020900264269024e-05  -9.9619215658717226e-05 -2.1845090916163170e-05 -8.2593784134653734e-05  -1.0181057069381876e-04 -2.1823318154046044e-05 -8.9548245875164837e-05  -1.0393326433950090e-04 -2.1772592147263187e-05 -9.6765783664653406e-05  -1.0606786622314447e-04 -2.1732855888532226e-05 -1.0437881904320340e-04  -1.0823536124921507e-04 -2.1681866079555971e-05 -1.1230221543447021e-04  -1.1034826953294594e-04 -2.1653775875738437e-05 -1.2054245301313646e-04  -1.1247144579623501e-04 -2.1662874641452468e-05 -1.2918410171352577e-04  -1.1459129776013145e-04 -2.1639187683802240e-05 -1.3809011566330356e-04  -1.1672112602827519e-04 -2.1606895900490478e-05 -1.4737394492648524e-04  -1.1894745055183056e-04 -2.1629471674568560e-05 -1.5698295005198214e-04  -1.2109377224595952e-04 -2.1596097897044737e-05 -1.6695554304896858e-04  -1.2322211085837026e-04 -2.1623016200251609e-05 -1.7723827809788524e-04  -1.2540388076462587e-04 -2.1593992189919005e-05 -1.8787582399432004e-04  -1.2751459154717869e-04 -2.1601995914068514e-05 -1.9880191345698903e-04  -7.0367936472426703e-05 -9.7926961190944055e-06 -6.4563477072103690e-05  -7.1207371997696384e-05 -9.7642524608353437e-06 -6.9560743911493934e-05  -7.2068429811244472e-05 -9.7512078182707711e-06 -7.4796439977662844e-05  -7.2857555752420508e-05 -9.6671171619847690e-06 -8.0343664367556262e-05  -7.3706409585730528e-05 -9.6617404056329556e-06 -8.6145213736086917e-05  -7.4452214951674581e-05 -9.5049700299569576e-06 -9.2270099731484799e-05  -7.5223942991661720e-05 -9.4832311321903257e-06 -9.8641750173040867e-05  -7.6001857924044611e-05 -9.4191878720796952e-06 -1.0527718798690301e-04  -7.6743749872629032e-05 -9.4017352915715672e-06 -1.1215891423056361e-04  -7.7467410585313736e-05 -9.2837988504256279e-06 -1.1942544897265535e-04  -7.8227261560945274e-05 -9.3052267475973336e-06 -1.2693958365840124e-04  -7.8977591146523875e-05 -9.2910068091177834e-06 -1.3463570315913625e-04  -7.9726632111810678e-05 -9.3070146407402371e-06 -1.4267984043629434e-04  -8.0469824542917821e-05 -9.3439579583918044e-06 -1.5100307445655632e-04  -8.1212088611906408e-05 -9.3336943896432351e-06 -1.5959062994849228e-04  -8.1981436752652056e-05 -9.4135021671757615e-06 -1.6839176363075452e-04  -8.2802433338516991e-05 -9.4211758681351541e-06 -1.7755732115768073e-04  -8.3612201496774451e-05 -9.3377743687867792e-06 -1.8694419179593504e-04  -8.4460368677684411e-05 -9.4302794632861691e-06 -1.9668344267492684e-04  -8.5351040123089357e-05 -9.4228784032081953e-06 -2.0661889252841125e-04  -6.5025500030624825e-05 3.6105017040597089e-06 -5.8682550971564384e-05  -6.0722743283071870e-05 8.0988200937182060e-07 -5.8592653387004065e-05  -5.6197762797228754e-05 -1.8765050126549260e-06 -5.8342561658465232e-05  -5.1403017442956228e-05 -4.6190065229285106e-06 -5.7971864718776758e-05  -4.5886787609031231e-05 -7.7580932318061263e-06 -5.7385639463579704e-05  -3.8422390446527099e-05 -1.2026965472167632e-05 -5.6244775519037632e-05  -2.9600309744569523e-05 -1.7031664627019419e-05 -5.4271234208174789e-05  -2.0944732566786781e-05 -2.2656705032642725e-05 -5.1737043595312401e-05  -1.3078316067570409e-05 -2.8458288529951353e-05 -4.8154527249792722e-05  -5.4224641498233453e-06 -3.4656988370611722e-05 -4.3180800650114753e-05  5.8962265881050727e-08 -3.9688099620947861e-05 -3.8070172499575828e-05  3.4888536157345429e-06 -4.2947696429342229e-05 -3.3603361596739994e-05  5.7016252340516280e-06 -4.5436349601333461e-05 -2.8554663272538921e-05  6.8116130978637336e-06 -4.6301803804163186e-05 -2.2444820320073073e-05  5.1083139798413992e-06 -4.2364811605319473e-05 -1.2338018265629402e-05  1.3673710642761882e-05 -3.2416222157877688e-05 -9.5731551082685394e-06  1.5801873235082520e-05 -3.8015142091732207e-05 -7.9419601875381972e-06  1.6370916670160050e-05 -3.6690305569374894e-05 -5.6384049963689006e-06  1.6840598932637946e-05 -3.3466920991095035e-05 -3.3137284593594068e-06  1.6990477875067081e-05 -2.8447977318072594e-05 -8.8678349342527298e-07  1.6995551684191069e-05 -2.0584392599288807e-05 1.5997285037670526e-06  1.6940215383683450e-05 -1.0483562212718137e-05 3.3867735784350264e-06  1.6976664536552588e-05 -1.9686695852367316e-07 4.0804714031593420e-06  1.6869299181502967e-05 1.0368722073738024e-05 3.3049074922322687e-06  1.7019514108229571e-05 2.0781137803077929e-05 1.2716405888633026e-06  1.6837425650460098e-05 2.8315133814537958e-05 -1.6748796797721638e-06  1.6421250119514971e-05 3.3423009850170160e-05 -4.2225105003221649e-06  1.6226145901938667e-05 3.6901599883157035e-05 -6.7340947441341252e-06  1.5350679559928051e-05 3.7801763061850732e-05 -9.4497512750839580e-06  1.3265774675311061e-05 3.0715926352103735e-05 -1.1074750592866003e-05  -6.5488275116506976e-05 -6.4794594668720777e-06 -6.0127106971537350e-05  -6.1102018254523515e-05 -3.4673208093323501e-06 -6.0103773285343030e-05  -5.6574614146023083e-05 -6.2643917066008764e-07 -5.9880157441287691e-05  -5.1879503634390278e-05 2.2031771605781623e-06 -5.9505003902845102e-05  -4.6406934424649002e-05 5.4433759336069814e-06 -5.8815054774601106e-05  -3.9009283723951904e-05 9.7284177190856946e-06 -5.7699745036992682e-05  -2.9947274196157912e-05 1.5337250710711180e-05 -5.5785716916821009e-05  -2.1370879965318064e-05 2.1200367604048283e-05 -5.3206136228134030e-05  -1.3406180637382131e-05 2.7345731391598144e-05 -4.9511412097962614e-05  -6.0379287078959646e-06 3.3558173877409629e-05 -4.4519482705935822e-05  -4.5482478785984135e-07 3.8589664813629846e-05 -3.9645711272377534e-05  3.0838425423784750e-06 4.2449613901718644e-05 -3.4946344888462523e-05  5.2356540975560089e-06 4.5120427200559455e-05 -3.0032968848058217e-05  6.9205711512659467e-06 4.5977992237875106e-05 -2.4067019035131149e-05  4.6036991586043582e-06 4.2730969311472436e-05 -1.3310299863074424e-05  -7.5236717165470777e-05 4.0429589719655096e-06 -2.1577065767393371e-04  -6.5127738982808555e-05 1.1729544608871842e-06 -2.1569783469092702e-04  -5.5107317990442191e-05 -1.5167790727536560e-06 -2.1544416291427101e-04  -4.4813549262391841e-05 -4.1810291492910965e-06 -2.1510127973078512e-04  -3.2972777320032935e-05 -7.2399196019605516e-06 -2.1448297507058449e-04  -1.6926303034171737e-05 -1.1563308439912961e-05 -2.1330640670709565e-04  2.9082867827093027e-06 -1.6699390943748993e-05 -2.1124949269176789e-04  2.3349943328820049e-05 -2.2059441487211162e-05 -2.0879978209846161e-04  4.4285445592274904e-05 -2.8017240471811300e-05 -2.0512065233199787e-04  6.5170252841021911e-05 -3.4162321943171547e-05 -2.0028982316949500e-04  8.3507378800758690e-05 -3.9007611212982266e-05 -1.9527381522971903e-04  9.7354126665844090e-05 -4.2701270234035856e-05 -1.9048629086857959e-04  1.1003915305127788e-04 -4.4891167492799836e-05 -1.8546090993024650e-04  1.2360191749209495e-04 -4.5703301169382943e-05 -1.7930457849839004e-04  1.3936660089974411e-04 -4.0891211479085226e-05 -1.7009955915771820e-04  1.4565661112055244e-04 -3.0272130761217258e-05 -1.6663646113868627e-04  1.4346092460514739e-04 -3.7396344011479736e-05 -1.6506986002880799e-04  1.4273235412777855e-04 -3.6290832914717753e-05 -1.6254723990148548e-04  1.4238002844129050e-04 -3.2855706567288337e-05 -1.6032473146221902e-04  1.4228294718377884e-04 -2.7871523593119892e-05 -1.5797397872543040e-04  1.4212639932569983e-04 -2.0119152953574982e-05 -1.5539373187854560e-04  1.4211638908717567e-04 -1.0044081049534523e-05 -1.5369683619438534e-04  1.4190533494708906e-04 3.2474724037400521e-07 -1.5299898087134034e-04  1.4193120543567252e-04 1.0770957921178245e-05 -1.5383287248189751e-04  1.4189903131692664e-04 2.1173214323149552e-05 -1.5598626619103983e-04  1.4175278423419013e-04 2.8740578649816606e-05 -1.5871848414533569e-04  1.4205673575293587e-04 3.3983660755296686e-05 -1.6113005349173518e-04  1.4251265321476252e-04 3.7164108827989059e-05 -1.6407506012649991e-04  1.4302109913393024e-04 3.8297637097374683e-05 -1.6635789768483278e-04  1.4481342195725845e-04 3.1017811413951273e-05 -1.6776902004713717e-04  -7.5673000294538772e-05 -6.0388462385637969e-06 -2.1722440744197514e-04  -6.5557241332102532e-05 -3.0443833507157661e-06 -2.1711430783527224e-04  -5.5539239305459425e-05 -2.2802500576060843e-07 -2.1686977722288378e-04  -4.5252553227115743e-05 2.5401933243524099e-06 -2.1650290299722569e-04  -3.3359438601637502e-05 5.7806906296717202e-06 -2.1591122915416713e-04  -1.7152531260605228e-05 1.0210351737913080e-05 -2.1482837016838243e-04  2.4038327043164755e-06 1.5835764405447380e-05 -2.1284793280673388e-04  2.2781049393945041e-05 2.1636399913562139e-05 -2.1029913973015960e-04  4.3884529445832386e-05 2.7601128670932615e-05 -2.0674172811009501e-04  6.4919054302038634e-05 3.4067461644346622e-05 -2.0174821423649526e-04  8.3039426145115942e-05 3.9106867813845220e-05 -1.9669862415524925e-04  9.6864210394907903e-05 4.2903213805102487e-05 -1.9197216961128289e-04  1.0938232045828873e-04 4.5435254229103855e-05 -1.8697755847845278e-04  1.2240544443420891e-04 4.6667014897975376e-05 -1.8109110752305153e-04  1.3857298768418062e-04 4.2532396331936439e-05 -1.7279154919323935e-04  1.2399741635245493e-05 -4.6612901541093434e-05 -1.1111035979451029e-05  2.3615158290648140e-05 -5.4613638144258112e-05 -1.9598187170661797e-05  3.1257954879468033e-05 -5.8088630969332633e-05 -2.5305192543733116e-05  3.8159703650242740e-05 -5.9806627115780769e-05 -3.0908833161580061e-05  4.5932431926983031e-05 -6.0877471263230662e-05 -3.7351240982743840e-05  5.5904672521662957