<?xml version="1.0"?>
<VTKFile type="UnstructuredGrid"  version="0.1"  >
<UnstructuredGrid>
<Piece  NumberOfPoints="13994" NumberOfCells="27604">
<Points>
<DataArray  type="Float64"  NumberOfComponents="3"  format="ascii">0 0 0  0 0.002 0  0 0.012 0  0.02 0.012 0  0.02 0.002 0  0.02 0 0  0 0.00018991218723181 0  0 0.0003733069980565314 0  0 0.0005291058521180011 0  0 0.0006498368539013445 0  0 0.0007536755098046806 0  0 0.0008517785356707968 0  0 0.0009480373746127394 0  0 0.001043725399826676 0  0 0.001139352859843888 0  0 0.001234980319861256 0  0 0.001330607779878751 0  0 0.001426235239895836 0  0 0.001521862699913337 0  0 0.001617490159930668 0  0 0.001713117619947918 0  0 0.001808745079965419 0  0 0.00190437253998255 0  0 0.002099315255484767 0  0 0.00219863051096945 0  0 0.002297945766454132 0  0 0.002397261021938822 0  0 0.002496576277423643 0  0 0.002595891532908487 0  0 0.002695206788393201 0  0 0.002794522043877884 0  0 0.002893837299362567 0  0 0.002993152554847297 0  0 0.003092681927103184 0  0 0.003193251726535867 0  0 0.003297217623563905 0  0 0.003412055643439157 0  0 0.003556206383341719 0  0 0.00373832862847297 0  0 0.003934412277764292 0  0 0.004132269451364158 0  0 0.004330165071839649 0  0 0.004528060692314851 0  0 0.004725956312789485 0  0 0.004923851933264119 0  0 0.005121747553738754 0  0 0.005319643174213387 0  0 0.005517538794688026 0  0 0.005715434415163353 0  0 0.00591333003563883 0  0 0.006111225656113617 0  0 0.006309121276588279 0  0 0.006507016897063628 0  0 0.006704912517539083 0  0 0.006902808138013848 0  0 0.007100703758489355 0  0 0.007298599378965707 0  0 0.00749649499944143 0  0 0.007694390619917074 0  0 0.007892286240393405 0  0 0.008090181860869756 0  0 0.008288077481346107 0  0 0.008485973101822112 0  0 0.008683868722297605 0  0 0.008881764342773803 0  0 0.009079659963250154 0  0 0.009277555583726452 0  0 0.009475451204201943 0  0 0.009673346824677437 0  0 0.009871242445153522 0  0 0.01006909055712404 0  0 0.01026501958268966 0  0 0.01044620416271123 0  0 0.01058894488656577 0  0 0.0107031139712953 0  0 0.0108068497950327 0  0 0.01090734303176106 0  0 0.01100684744514782 0  0 0.01110616270063268 0  0 0.01120547795611743 0  0 0.0113047932116027 0  0 0.01140410846708803 0  0 0.01150342372257336 0  0 0.01160273897805869 0  0 0.01170205423354402 0  0 0.01180136948902934 0  0 0.01190068474451467 0  9.978975395281022e-05 0.012 0  0.0001995795079056199 0.012 0  0.0002993692618584289 0.012 0  0.0003991590158112439 0.012 0  0.0004989487697640555 0.012 0  0.0005987385237168579 0.012 0  0.0006985282776696451 0.012 0  0.0007983180316224271 0.012 0  0.000898107785575209 0.012 0  0.0009978975395279867 0.012 0  0.001097903761155907 0.012 0  0.00119897444176409 0.012 0  0.001303552401813303 0.012 0  0.001419441874278495 0.012 0  0.001565665351390316 0.012 0  0.001749734577628449 0.012 0  0.001946961243490195 0.012 0  0.002145776300130266 0.012 0  0.002344617406455583 0.012 0  0.002543458512780745 0.012 0  0.002742299619105691 0.012 0  0.002941140725430647 0.012 0  0.003139981831755724 0.012 0  0.003338822938080718 0.012 0  0.003537664044405765 0.012 0  0.003736505150730789 0.012 0  0.003935346257055665 0.012 0  0.004134187363380482 0.012 0  0.004333028469705492 0.012 0  0.004531869576030592 0.012 0  0.004730710682355693 0.012 0  0.004929551788680701 0.012 0  0.005128392895005586 0.012 0  0.005327234001330656 0.012 0  0.005526075107655759 0.012 0  0.00572491621398086 0.012 0  0.005923757320305807 0.012 0  0.006122598426630523 0.012 0  0.006321439532955485 0.012 0  0.006520280639280587 0.012 0  0.006719121745605689 0.012 0  0.006917962851930744 0.012 0  0.007116803958255627 0.012 0  0.007315645064580652 0.012 0  0.007514486170905753 0.012 0  0.007713327277230856 0.012 0  0.007912168383555849 0.012 0  0.008111009489880579 0.012 0  0.008309850596205249 0.012 0  0.00850869170252992 0.012 0  0.008707532808854836 0.012 0  0.008906373915180277 0.012 0  0.009105215021505809 0.012 0  0.009304056127831339 0.012 0  0.009502897234156595 0.012 0  0.009701738340481325 0.012 0  0.00990057944680612 0.012 0  0.01009942055313165 0.012 0  0.01029826165945792 0.012 0  0.01049710276578432 0.012 0  0.01069594387211056 0.012 0  0.01089478497843628 0.012 0  0.01109362608476181 0.012 0  0.01129246719108743 0.012 0  0.01149130829741358 0.012 0  0.01169014940373998 0.012 0  0.01188899051006637 0.012 0  0.01208783161639276 0.012 0  0.01228667272271916 0.012 0  0.01248551382904555 0.012 0  0.01268435493537189 0.012 0  0.0128831960416977 0.012 0  0.01308203714802323 0.012 0  0.01328087825434876 0.012 0  0.01347971936067482 0.012 0  0.01367856046700121 0.012 0  0.01387740157332761 0.012 0  0.014076242679654 0.012 0  0.0142750837859804 0.012 0  0.01447392489230679 0.012 0  0.01467276599863288 0.012 0  0.01487160710495845 0.012 0  0.01507044821128398 0.012 0  0.01526928931760951 0.012 0  0.01546813042393538 0.012 0  0.01566697153026177 0.012 0  0.01586581263658817 0.012 0  0.01606465374291456 0.012 0  0.01626349484924096 0.012 0  0.01646233595556735 0.012 0  0.01666117706189375 0.012 0  0.01686001816822014 0.012 0  0.01705885927454654 0.012 0  0.01725770038087293 0.012 0  0.01745654148719933 0.012 0  0.01765538259352572 0.012 0  0.01785422369985126 0.012 0  0.01805303875649182 0.012 0  0.01825026542235476 0.012 0  0.01843433464859586 0.012 0  0.0185805581257116 0.012 0  0.01869644759817871 0.012 0  0.01880102555822882 0.012 0  0.01890209623883762 0.012 0  0.01900210246046605 0.012 0  0.01910189221441937 0.012 0  0.01920168196837277 0.012 0  0.01930147172232618 0.012 0  0.01940126147627958 0.012 0  0.01950105123023298 0.012 0  0.01960084098418639 0.012 0  0.01970063073813979 0.012 0  0.0198004204920932 0.012 0  0.0199002102460466 0.012 0  0.02 0.01190068474451468 0  0.02 0.01180136948902936 0  0.02 0.01170205423354404 0  0.02 0.01160273897805911 0  0.02 0.01150342372257466 0  0.02 0.0114041084670902 0  0.02 0.01130479321160574 0  0.02 0.01120547795612128 0  0.02 0.01110616270063682 0  0.02 0.01100684744515223 0  0.02 0.01090734303176592 0  0.02 0.01080684979503809 0  0.02 0.0107031139713015 0  0.02 0.01058894488657366 0  0.02 0.01044620416272257 0  0.02 0.01026501958270403 0  0.02 0.0100690905571399 0  0.02 0.009871242445170739 0  0.02 0.009673346824695263 0  0.02 0.009475451204219894 0  0.02 0.009277555583745276 0  0.02 0.009079659963270658 0  0.02 0.008881764342796038 0  0.02 0.008683868722321421 0  0.02 0.008485973101846803 0  0.02 0.008288077481371333 0  0.02 0.008090181860895874 0  0.02 0.007892286240421254 0  0.02 0.007694390619946956 0  0.02 0.007496494999471631 0  0.02 0.007298599378996185 0  0.02 0.007100703758521427 0  0.02 0.006902808138045967 0  0.02 0.006704912517569632 0  0.02 0.00650701689709391 0  0.02 0.00630912127661829 0  0.02 0.006111225656141982 0  0.02 0.005913330035665646 0  0.02 0.005715434415189312 0  0.02 0.005517538794713476 0  0.02 0.005319643174237913 0  0.02 0.005121747553761661 0  0.02 0.004923851933285327 0  0.02 0.00472595631280901 0  0.02 0.004528060692333383 0  0.02 0.004330165071857877 0  0.02 0.004132269451381683 0  0.02 0.003934412277780621 0  0.02 0.003738328628487856 0  0.02 0.003556206383353586 0  0.02 0.003412055643447466 0  0.02 0.003297217623570428 0  0.02 0.003193251726541566 0  0.02 0.003092681927108373 0  0.02 0.002993152554852059 0  0.02 0.002893837299367244 0  0.02 0.002794522043882504 0  0.02 0.002695206788397242 0  0.02 0.002595891532911922 0  0.02 0.002496576277426601 0  0.02 0.002397261021941282 0  0.02 0.002297945766455962 0  0.02 0.002198630510970641 0  0.02 0.002099315255485321 0  0.02 0.001904372539982662 0  0.02 0.00180874507996562 0  0.02 0.001713117619948905 0  0.02 0.001617490159932045 0  0.02 0.001521862699915003 0  0.02 0.001426235239897792 0  0.02 0.001330607779880864 0  0.02 0.00123498031986434 0  0.02 0.001139352859847767 0  0.02 0.001043725399830725 0  0.02 0.0009480373746167511 0  0.02 0.0008517785356742583 0  0.02 0.0007536755098076359 0  0.02 0.0006498368539039022 0  0.02 0.0005291058521203294 0  0.02 0.0003733069980584446 0  0.02 0.0001899121872328039 0  0.01980198019801899 0 0  0.01960396039603798 0 0  0.01940594059405751 0 0  0.01920792079207809 0 0  0.01900990099009879 0 0  0.0188118811881195 0 0  0.01861386138614021 0 0  0.01841584158416092 0 0  0.01821782178218163 0 0  0.01801980198020233 0 0  0.01782178217822304 0 0  0.01762376237624375 0 0  0.01742574257426446 0 0  0.01722772277228516 0 0  0.01702970297030587 0 0  0.01683168316832658 0 0  0.01663366336634692 0 0  0.01643564356436677 0 0  0.01623762376238662 0 0  0.01603960396040647 0 0  0.01584158415842632 0 0  0.01564356435644616 0 0  0.01544554455446567 0 0  0.01524752475248552 0 0  0.0150495049505056 0 0  0.0148514851485262 0 0  0.01465346534654691 0 0  0.01445544554456762 0 0  0.01425742574258833 0 0  0.01405940594060903 0 0  0.01386138613862974 0 0  0.01366336633665045 0 0  0.01346534653467116 0 0  0.01326732673269186 0 0  0.01306930693071257 0 0  0.01287128712873307 0 0  0.01267326732675304 0 0  0.01247524752477289 0 0  0.01227722772279274 0 0  0.01207920792081283 0 0  0.01188118811883343 0 0  0.01168316831685414 0 0  0.01148514851487485 0 0  0.0112871287128953 0 0  0.01108910891091523 0 0  0.01089108910893508 0 0  0.01069306930695493 0 0  0.01049504950497506 0 0  0.01029702970299571 0 0  0.01009900990101629 0 0  0.009900990099036141 0 0  0.009702970297055254 0 0  0.009504950495074242 0 0  0.009306930693093381 0 0  0.009108910891113039 0 0  0.008910891089132891 0 0  0.00871287128715266 0 0  0.008514851485171908 0 0  0.008316831683190898 0 0  0.008118811881209886 0 0  0.007920792079228876 0 0  0.007722772277247866 0 0  0.007524752475266856 0 0  0.007326732673285883 0 0  0.007128712871305429 0 0  0.00693069306932528 0 0  0.006732673267345128 0 0  0.006534653465364517 0 0  0.006336633663383506 0 0  0.006138613861402497 0 0  0.005940594059421487 0 0  0.005742574257440475 0 0  0.005544554455459467 0 0  0.005346534653478721 0 0  0.005148514851498497 0 0  0.004950495049518343 0 0  0.00475247524
[...]
<PointData  Vectors="U [m]"> 
<DataArray  type="Float64"  Name="U [m]"  NumberOfComponents="3" format="ascii">4.9747734711396209e-06 -2.7205251193588491e-06 0.0000000000000000e+00  4.2175915552774482e-06 -2.6128029924111676e-06 0.0000000000000000e+00  0.0000000000000000e+00 0.0000000000000000e+00 0.0000000000000000e+00  9.8655710966837659e-06 0.0000000000000000e+00 0.0000000000000000e+00  5.6479777698774720e-06 -2.6128054004608371e-06 0.0000000000000000e+00  4.8907929218749138e-06 -2.7205289173396473e-06 0.0000000000000000e+00  4.9003905616035877e-06 -2.7196962701392130e-06 0.0000000000000000e+00  4.8284293064926738e-06 -2.7172341366454236e-06 0.0000000000000000e+00  4.7672334942406171e-06 -2.7137583828477209e-06 0.0000000000000000e+00  4.7198264947081389e-06 -2.7101578323318678e-06 0.0000000000000000e+00  4.6791027310155105e-06 -2.7064128038577191e-06 0.0000000000000000e+00  4.6407022023052635e-06 -2.7023179769694922e-06 0.0000000000000000e+00  4.6031229853131098e-06 -2.6977689276268813e-06 0.0000000000000000e+00  4.5658949951327050e-06 -2.6927244513346313e-06 0.0000000000000000e+00  4.5288512415137649e-06 -2.6871581537580920e-06 0.0000000000000000e+00  4.4920075724511978e-06 -2.6810641501665070e-06 0.0000000000000000e+00  4.4554092233910978e-06 -2.6744403056111031e-06 0.0000000000000000e+00  4.4191127810163946e-06 -2.6672791381013172e-06 0.0000000000000000e+00  4.3831887328385144e-06 -2.6595806959927636e-06 0.0000000000000000e+00  4.3477329278911553e-06 -2.6513323204146009e-06 0.0000000000000000e+00  4.3128959140428650e-06 -2.6425153807315192e-06 0.0000000000000000e+00  4.2789149242195342e-06 -2.6331091362294408e-06 0.0000000000000000e+00  4.2462815355051662e-06 -2.6230463494872993e-06 0.0000000000000000e+00  4.1893150453575929e-06 -2.6091644530395751e-06 0.0000000000000000e+00  4.1571255326220071e-06 -2.6066017431012156e-06 0.0000000000000000e+00  4.1232782343085144e-06 -2.6036889062697126e-06 0.0000000000000000e+00  4.0883614602184185e-06 -2.6003951553677127e-06 0.0000000000000000e+00  4.0526317680020727e-06 -2.5966681071577172e-06 0.0000000000000000e+00  4.0162434919828421e-06 -2.5924985321715046e-06 0.0000000000000000e+00  3.9793048994152785e-06 -2.5878671560163008e-06 0.0000000000000000e+00  3.9418865834962483e-06 -2.5827678241979358e-06 0.0000000000000000e+00  3.9040487874908745e-06 -2.5771911625901427e-06 0.0000000000000000e+00  3.8658358013156012e-06 -2.5711330413597893e-06 0.0000000000000000e+00  3.8272011076323061e-06 -2.5645764644784814e-06 0.0000000000000000e+00  3.7878483898506651e-06 -2.5574532899389978e-06 0.0000000000000000e+00  3.7468639654786030e-06 -2.5495619754286803e-06 0.0000000000000000e+00  3.7012657917794704e-06 -2.5402196937036205e-06 0.0000000000000000e+00  3.6435827839472755e-06 -2.5275613901920453e-06 0.0000000000000000e+00  3.5700661997789288e-06 -2.5100825292076162e-06 0.0000000000000000e+00  3.4902043236879298e-06 -2.4894066156612428e-06 0.0000000000000000e+00  3.4089571105512024e-06 -2.4665914922762741e-06 0.0000000000000000e+00  3.3270971743164697e-06 -2.4418098550173154e-06 0.0000000000000000e+00  3.2447040237584294e-06 -2.4150673265139468e-06 0.0000000000000000e+00  3.1618295023793793e-06 -2.3863650282784654e-06 0.0000000000000000e+00  3.0785180240664362e-06 -2.3557060046467312e-06 0.0000000000000000e+00  2.9948108902902371e-06 -2.3230913044788540e-06 0.0000000000000000e+00  2.9107448069683349e-06 -2.2885242749398071e-06 0.0000000000000000e+00  2.8263513487213750e-06 -2.2520063464987158e-06 0.0000000000000000e+00  2.7416606313278839e-06 -2.2135413100414557e-06 0.0000000000000000e+00  2.6566998849364054e-06 -2.1731308454401848e-06 0.0000000000000000e+00  2.5714925094388877e-06 -2.1307781679216617e-06 0.0000000000000000e+00  2.4860620155261139e-06 -2.0864855983518849e-06 0.0000000000000000e+00  2.4004302245526181e-06 -2.0402556266602884e-06 0.0000000000000000e+00  2.3146167602941636e-06 -1.9920924946324063e-06 0.0000000000000000e+00  2.2286399801471579e-06 -1.9419974457831842e-06 0.0000000000000000e+00  2.1425181618532726e-06 -1.8899743667810687e-06 0.0000000000000000e+00  2.0562675608338668e-06 -1.8360258836544795e-06 0.0000000000000000e+00  1.9699043782763093e-06 -1.7801555112587580e-06 0.0000000000000000e+00  1.8834435177119181e-06 -1.7223661948063578e-06 0.0000000000000000e+00  1.7968997798411781e-06 -1.6626616295963006e-06 0.0000000000000000e+00  1.7102868119396838e-06 -1.6010457689867216e-06 0.0000000000000000e+00  1.6236176744652444e-06 -1.5375216472235411e-06 0.0000000000000000e+00  1.5369055032383326e-06 -1.4720941462184731e-06 0.0000000000000000e+00  1.4501621543714915e-06 -1.4047670429000487e-06 0.0000000000000000e+00  1.3633994512845363e-06 -1.3355451231636386e-06 0.0000000000000000e+00  1.2766287061286117e-06 -1.2644333290137207e-06 0.0000000000000000e+00  1.1898603810275317e-06 -1.1914377866020111e-06 0.0000000000000000e+00  1.1031040962642437e-06 -1.1165628902107518e-06 0.0000000000000000e+00  1.0163697812194195e-06 -1.0398162708220867e-06 0.0000000000000000e+00  9.2966591167821979e-07 -9.6120353185556977e-07 0.0000000000000000e+00  8.4302127920696956e-07 -8.8075289167369411e-07 0.0000000000000000e+00  7.5726119468640774e-07 -7.9925965655274723e-07 0.0000000000000000e+00  6.7799910864631256e-07 -7.2229266265354649e-07 0.0000000000000000e+00  6.1558705015522653e-07 -6.6057438833760873e-07 0.0000000000000000e+00  5.6568878206065858e-07 -6.1052586849008590e-07 0.0000000000000000e+00  5.2036707122337477e-07 -5.6452596996875563e-07 0.0000000000000000e+00  4.7647711453272343e-07 -5.1948858255529875e-07 0.0000000000000000e+00  4.3303352734144395e-07 -4.7443488101798809e-07 0.0000000000000000e+00  3.8968650507576415e-07 -4.2901257212254953e-07 0.0000000000000000e+00  3.4635292739966779e-07 -3.8313764102629984e-07 0.0000000000000000e+00  3.0303193134186318e-07 -3.3681167196505019e-07 0.0000000000000000e+00  2.5972237471400095e-07 -2.9003614230503954e-07 0.0000000000000000e+00  2.1642280185723120e-07 -2.4281238987747809e-07 0.0000000000000000e+00  1.7313141428635048e-07 -1.9514166011388027e-07 0.0000000000000000e+00  1.2984602798972396e-07 -1.4702489765842317e-07 0.0000000000000000e+00  8.6563993270184751e-08 -9.8462704252089603e-08 0.0000000000000000e+00  4.3282625513519390e-08 -4.9454926781222522e-08 0.0000000000000000e+00  4.9916629130932176e-08 4.3263839267386114e-08 0.0000000000000000e+00  9.9834825979148839e-08 8.6075953086585016e-08 0.0000000000000000e+00  1.4975616332983496e-07 1.2843438066116978e-07 0.0000000000000000e+00  1.9968079812318192e-07 1.7033638028082647e-07 0.0000000000000000e+00  2.4960806047720076e-07 2.1177927818165282e-07 0.0000000000000000e+00  2.9953704281753006e-07 2.5276090684521225e-07 0.0000000000000000e+00  3.4946636243659070e-07 2.9327940900316818e-07 0.0000000000000000e+00  3.9939479044220572e-07 3.3333340462544536e-07 0.0000000000000000e+00  4.4932064363938542e-07 3.7292178401524415e-07 0.0000000000000000e+00  4.9924248229474128e-07 4.1204372247571835e-07 0.0000000000000000e+00  5.4926728015718451e-07 4.5078211284801900e-07 0.0000000000000000e+00  5.9981746178027805e-07 4.8945606847261846e-07 0.0000000000000000e+00  6.5211275480525937e-07 5.2896751823028904e-07 0.0000000000000000e+00  7.1005210021981519e-07 5.7215343122691521e-07 0.0000000000000000e+00  7.8313527243900829e-07 6.2574506622184714e-07 0.0000000000000000e+00  8.7509393725438975e-07 6.9178495836403608e-07 0.0000000000000000e+00  9.7356940611351011e-07 7.6079040428541559e-07 0.0000000000000000e+00  1.0727720292488943e-06 8.2852059395416731e-07 0.0000000000000000e+00  1.1719146896947303e-06 8.9442889467166257e-07 0.0000000000000000e+00  1.2709791844275167e-06 9.5851462056667955e-07 0.0000000000000000e+00  1.3699610046960858e-06 1.0207867332997936e-06 0.0000000000000000e+00  1.4688570502746554e-06 1.0812547543925453e-06 0.0000000000000000e+00  1.5676642689103165e-06 1.1399285282119416e-06 0.0000000000000000e+00  1.6663811373461675e-06 1.1968176197581493e-06 0.0000000000000000e+00  1.7650061473300062e-06 1.2519319389617380e-06 0.0000000000000000e+00  1.8635393974543219e-06 1.3052810376961933e-06 0.0000000000000000e+00  1.9619804348219929e-06 1.3568743962670688e-06 0.0000000000000000e+00  2.0603301173845566e-06 1.4067211643390223e-06 0.0000000000000000e+00  2.1585895360508674e-06 1.4548301653445606e-06 0.0000000000000000e+00  2.2567602153307422e-06 1.5012102727463871e-06 0.0000000000000000e+00  2.3548438263577040e-06 1.5458695022182867e-06 0.0000000000000000e+00  2.4528425172555270e-06 1.5888159733742627e-06 0.0000000000000000e+00  2.5507595813566471e-06 1.6300571387544747e-06 0.0000000000000000e+00  2.6485963225400571e-06 1.6695996982100909e-06 0.0000000000000000e+00  2.7463567998585291e-06 1.7074508586451026e-06 0.0000000000000000e+00  2.8440431140215423e-06 1.7436166378917015e-06 0.0000000000000000e+00  2.9416591788819435e-06 1.7781031073657337e-06 0.0000000000000000e+00  3.0392077316431918e-06 1.8109155733628451e-06 0.0000000000000000e+00  3.1366923752814559e-06 1.8420593580748644e-06 0.0000000000000000e+00  3.2341163076479722e-06 1.8715391505929789e-06 0.0000000000000000e+00  3.3314829689511928e-06 1.8993594159788432e-06 0.0000000000000000e+00  3.4287962021466939e-06 1.9255242618675572e-06 0.0000000000000000e+00  3.5260586289774356e-06 1.9500372023841049e-06 0.0000000000000000e+00  3.6232745991294897e-06 1.9729018942243219e-06 0.0000000000000000e+00  3.7204469446022222e-06 1.9941213082462332e-06 0.0000000000000000e+00  3.8175792185014641e-06 2.0136984275491545e-06 0.0000000000000000e+00  3.9146747486895291e-06 2.0316356553409951e-06 0.0000000000000000e+00  4.0117369968094840e-06 2.0479353536591468e-06 0.0000000000000000e+00  4.1087691794120930e-06 2.0625995419272879e-06 0.0000000000000000e+00  4.2057746246893051e-06 2.0756300327729097e-06 0.0000000000000000e+00  4.3027565398000613e-06 2.0870283683709891e-06 0.0000000000000000e+00  4.3997181092997581e-06 2.0967959372221911e-06 0.0000000000000000e+00  4.4966624697836594e-06 2.1049339037686860e-06 0.0000000000000000e+00  4.5935931512077676e-06 2.1114431396554486e-06 0.0000000000000000e+00  4.6905126933350951e-06 2.1163244496834201e-06 0.0000000000000000e+00  4.7874244959036263e-06 2.1195783462461131e-06 0.0000000000000000e+00  4.8843318054616652e-06 2.1212052387057964e-06 0.0000000000000000e+00  4.9812376096352478e-06 2.1212052737644918e-06 0.0000000000000000e+00  5.0781448506816256e-06 2.1195784806907243e-06 0.0000000000000000e+00  5.1750566464563384e-06 2.1163246166987716e-06 0.0000000000000000e+00  5.2719764117150226e-06 2.1114434099402782e-06 0.0000000000000000e+00  5.3689068976539038e-06 2.1049342475612866e-06 0.0000000000000000e+00  5.4658512857627522e-06 2.0967963535864926e-06 0.0000000000000000e+00  5.5628129949092965e-06 2.0870288241802499e-06 0.0000000000000000e+00  5.6597949076967226e-06 2.0756305291493240e-06 0.0000000000000000e+00  5.7568003718919709e-06 2.0626000965857570e-06 0.0000000000000000e+00  5.8538325729461432e-06 2.0479359614921793e-06 0.0000000000000000e+00  5.9508949678472931e-06 2.0316363103247007e-06 0.0000000000000000e+00  6.0479904443207799e-06 2.0136991852953407e-06 0.0000000000000000e+00  6.1451229248562643e-06 1.9941220766061695e-06 0.0000000000000000e+00  6.2422952377634146e-06 1.9729026560355208e-06 0.0000000000000000e+00  6.3395110427418798e-06 1.9500379946698166e-06 0.0000000000000000e+00  6.4367739514318157e-06 1.9255250278612486e-06 0.0000000000000000e+00  6.5340868734203375e-06 1.8993602769543225e-06 0.0000000000000000e+00  6.6314537939648132e-06 1.8715400340425551e-06 0.0000000000000000e+00  6.7288777134700177e-06 1.8420603051017460e-06 0.0000000000000000e+00  6.8263625719175707e-06 1.8109163999782313e-06 0.0000000000000000e+00  6.9239111026536517e-06 1.7781039440989433e-06 0.0000000000000000e+00  7.0215270487975360e-06 1.7436175645462917e-06 0.0000000000000000e+00  7.1192137085092283e-06 1.7074517614503354e-06 0.0000000000000000e+00  7.2169741394740581e-06 1.6696005827962750e-06 0.0000000000000000e+00  7.3148109875358474e-06 1.6300578858245485e-06 0.0000000000000000e+00  7.4127278934216586e-06 1.5888167888617724e-06 0.0000000000000000e+00  7.5107268201006972e-06 1.5458703053616567e-06 0.0000000000000000e+00  7.6088104593469454e-06 1.5012109938465748e-06 0.0000000000000000e+00  7.7069812211224509e-06 1.4548308659319616e-06 0.0000000000000000e+00  7.8052406266267265e-06 1.4067218133435738e-06 0.0000000000000000e+00  7.9035904027662698e-06 1.3568750342022665e-06 0.0000000000000000e+00  8.0020314816086719e-06 1.3052816136219231e-06 0.0000000000000000e+00  8.1005647098461408e-06 1.2519324879509190e-06 0.0000000000000000e+00  8.1991897956247043e-06 1.1968181266616681e-06 0.0000000000000000e+00  8.2979066949664931e-06 1.1399290073858946e-06 0.0000000000000000e+00  8.3967139405973037e-06 1.0812551813327934e-06 0.0000000000000000e+00  8.4956099834946511e-06 1.0207871322796324e-06 0.0000000000000000e+00  8.5945918624569948e-06 9.5851499445573399e-07 0.0000000000000000e+00  8.6936564963402218e-06 8.9442931021497493e-07 0.0000000000000000e+00  8.7927989446486844e-06 8.2852105051475707e-07 0.0000000000000000e+00  8.8920016660460130e-06 7.6079064415172629e-07 0.0000000000000000e+00  8.9904771399868348e-06 6.9178515022943583e-07 0.0000000000000000e+00  9.0824358725018596e-06 6.2574523695607772e-07 0.0000000000000000e+00  9.1555189421908680e-06 5.7215353662554359e-07 0.0000000000000000e+00  9.2134583336061701e-06 5.2896765317150756e-07 0.0000000000000000e+00  9.2657536358429053e-06 4.8945618754531793e-07 0.0000000000000000e+00  9.3163038206720969e-06 4.5078221359193346e-07 0.0000000000000000e+00  9.3663286164329864e-06 4.1204381076962004e-07 0.0000000000000000e+00  9.4162504550225162e-06 3.7292186055988089e-07 0.0000000000000000e+00  9.4661763081307761e-06 3.3333347007296280e-07 0.0000000000000000e+00  9.5161047357177420e-06 2.9327946394239441e-07 0.0000000000000000e+00  9.5660340560282590e-06 2.5276095228377738e-07 0.0000000000000000e+00  9.6159630369942177e-06 2.1177931474918741e-07 0.0000000000000000e+00  9.6658902990062534e-06 1.7033640883648868e-07 0.0000000000000000e+00  9.7158149335965662e-06 1.2843440158491304e-07 0.0000000000000000e+00  9.7657362707965794e-06 8.6075966748574782e-08 0.0000000000000000e+00  9.8156544675773580e-06 4.3263845983661045e-08 0.0000000000000000e+00  9.8222884646236988e-06 -4.9454926897579517e-08 0.0000000000000000e+00  9.7790070902662512e-06 -9.8462704701612542e-08 0.0000000000000000e+00  9.7357250489938196e-06 -1.4702489859144376e-07 0.0000000000000000e+00  9.6924396563137524e-06 -1.9514166168071824e-07 0.0000000000000000e+00  9.6491482626396755e-06 -2.4281239227593722e-07 0.0000000000000000e+00  9.6058486840301133e-06 -2.9003614579055672e-07 0.0000000000000000e+00  9.5625391220416323e-06 -3.3681167685300739e-07 0.0000000000000000e+00  9.5192181210418750e-06 -3.8313764768375937e-07 0.0000000000000000e+00  9.4758845388574360e-06 -4.2901258096451852e-07 0.0000000000000000e+00  9.4325375125271387e-06 -4.7443489250186962e-07 0.0000000000000000e+00  9.3890939217128510e-06 -5.1948859717220232e-07 0.0000000000000000e+00  9.3452039618219915e-06 -5.6452598827453639e-07 0.0000000000000000e+00  9.2998822481689455e-06 -6.1052589116240451e-07 0.0000000000000000e+00  9.2499839775787812e-06 -6.6057441646104440e-07 0.0000000000000000e+00  9.1875719169556633e-06 -7.2229269853823410e-07 0.0000000000000000e+00  9.1083098300301823e-06 -7.9925970363744921e-07 0.0000000000000000e+00  9.0225497500855214e-06 -8.8075295185066927e-07 0.0000000000000000e+00  8.9359051148884528e-06 -9.6120362220267996e-07 0.0000000000000000e+00  8.8492012287210568e-06 -1.0398163998235664e-06 0.0000000000000000e+00  8.7624669329179545e-06 -1.1165630446401509e-06 0.0000000000000000e+00  8.6757106610051299e-06 -1.1914379550580979e-06 0.0000000000000000e+00  8.5889423200078870e-06 -1.2644335412269666e-06 0.0000000000000000e+00  8.5021715762856169e-06 -1.3355453353361708e-06 0.0000000000000000e+00  8.4154088706401106e-06 -1.4047673578564928e-06 0.0000000000000000e+00  8.3286655428659566e-06 -1.4720944409610027e-06 0.0000000000000000e+00  8.2419532938934172e-06 -1.5375221521398445e-06 0.0000000000000000e+00  8.1552841723330113e-06 -1.6010462108200091e-06 0.0000000000000000e+00  8.0686712076145061e-06 -1.6626621444446270e-06 0.0000000000000000e+00  7.9821274588933500e-06 -1.7223667848143741e-06 0.0000000000000000e+00  7.8956665814888247e-06 -1.7801561720780087e-06 0.0000000000000000e+00  7.8093033634605246e-06 -1.8360266079648736e-06 0.0000000000000000e+00  7.7230526050890491e-06 -1.8899751607943079e-06 0.0000000000000000e+00  7.6369308936561598e-06 -1.9419983333627694e-06 0.0000000000000000e+00  7.5509540493871676e-06 -1.9920934835861770e-06 0.0000000000000000e+00  7.4651405198337879e-06 -2.0402566397086956e-06 0.0000000000000000e+00  7.3795086672809553e-06 -2.0864867167748373e-06 0.0000000000000000e+00  7.2940781871275826e-06 -2.1307792905005249e-06 0.0000000000000000e+00  7.2088708882451881e-06 -2.1731322026800270e-06 0.0000000000000000e+00  7.1239096385562323e-06 -2.2135427267452347e-06 0.0000000000000000e+00  7.0392189946496035e-06 -2.2520078044955043e-06 0.0000000000000000e+00  6.9548254822512213e-06 -2.2885257645684587e-06 0.0000000000000000e+00  6.8707593000779640e-06 -2.3230929039040053e-06 0.0000000000000000e+00  6.7870520782198548e-06 -2.3557076423285850e-06 0.0000000000000000e+00  6.7037405480493930e-06 -2.3863668110158308e-06 0.0000000000000000e+00  6.6208657943336825e-06 -2.4150690333149402e-06 0.0000000000000000e+00  6.5384724805743835e-06 -2.4418117292359598e-06 0.0000000000000000e+00  6.4566124253216182e-06 -2.4665931886208519e-06 0.0000000000000000e+00  6.3753651617949609e-06 -2.4894084692021736e-06 0.0000000000000000e+00  6.2955031137483916e-06 -2.5100843945434608e-06 0.0000000000000000e+00  6.2219864729184335e-06 -2.5275632296565031e-06 0.0000000000000000e+00  6.1643033377715370e-06 -2.5402215023656723e-06 0.0000000000000000e+00  6.1187050859825778e-06 -2.5495637366167068e-06 0.0000000000000000e+00  6.0777206037882884e-06 -2.5574550012379830e-06 0.0000000000000000e+00  6.0383678403163658e-06 -2.5645781205552676e-06 0.0000000000000000e+00  5.9997330987190225e-06 -2.5711346415849051e-06 0.0000000000000000e+00  5.9615200704018762e-06 -2.5771926413391918e-06 0.0000000000000000e+00  5.9236824258685906e-06 -2.5827691281890801e-06 0.0000000000000000e+00  5.8862644012955415e-06 -2.5878687017386764e-06 0.0000000000000000e+00  5.8493250087076072e-06 -2.5924997223499299e-06 0.0000000000000000e+00  5.8129374060376729e-06 -2.5966692227173196e-06 0.0000000000000000e+00  5.7772078288578550e-06 -2.6003964681490948e-06 0.0000000000000000e+00  5.7422912320355470e-06 -2.6036903241917185e-06 0.0000000000000000e+00  5.7084440116484121e-06 -2.6066034301925087e-06 0.0000000000000000e+00  5.6762544078108990e-06 -2.6091665128742384e-06 0.0000000000000000e+00  5.6192876718383403e-06 -2.6230489858821338e-06 0.0000000000000000e+00  5.5866541409422482e-06 -2.6331119830139843e-06 0.0000000000000000e+00  5.5526729995273138e-06 -2.6425184149690021e-06 0.0000000000000000e+00  5.5178358281614393e-06 -2.6513355086862343e-06 0.0000000000000000e+00  5.4823798581090468e-06 -2.6595839903147397e-06 0.0000000000000000e+00  5.4464556728094327e-06 -2.6672825191399227e-06 0.0000000000000000e+00  5.4101590759532917e-06 -2.6744437610327543e-06 0.0000000000000000e+00  5.3735605916103063e-06 -2.6810676684222036e-06 0.0000000000000000e+00  5.3367167807598118e-06 -2.6871617261127263e-06 0.0000000000000000e+00  5.2996728866856380e-06 -2.6927280662394575e-06 0.0000000000000000e+00  5.2624447585089886e-06 -2.6977725780441953e-06 0.0000000000000000e+00  5.2248654040886683e-06 -2.7023216581084617e-06 0.0000000000000000e+00  5.1864647359247185e-06 -2.7064165119786397e-06 0.0000000000000000e+00  5.1457408247195303e-06 -2.7101615647738008e-06 0.0000000000000000e+00  5.0983336533640446e-06 -2.7137621384951241e-06 0.0000000000000000e+00  5.0371376187017900e-06 -2.7172379145541189e-06 0.0000000000000000e+00  4.9651761014574528e-06 -2.7197000633716394e-06 0.000000