<?xml version="1.0"?>
<VTKFile type="UnstructuredGrid"  version="0.1"  >
<UnstructuredGrid>
<Piece  NumberOfPoints="561" NumberOfCells="1000">
<Points>
<DataArray  type="Float64"  NumberOfComponents="3"  format="ascii">0 0 0  0.0004 0 0  0.0008 0 0  0.0012 0 0  0.0016 0 0  0.002 0 0  0.0024 0 0  0.0028 0 0  0.0032 0 0  0.0036 0 0  0.004 0 0  0.0044 0 0  0.0048 0 0  0.0052 0 0  0.005600000000000001 0 0  0.006 0 0  0.0064 0 0  0.0068 0 0  0.0072 0 0  0.0076 0 0  0.008 0 0  0.008399999999999999 0 0  0.008800000000000001 0 0  0.0092 0 0  0.009599999999999999 0 0  0.01 0 0  0.0104 0 0  0.0108 0 0  0.0112 0 0  0.0116 0 0  0.012 0 0  0.0124 0 0  0.0128 0 0  0.0132 0 0  0.0136 0 0  0.014 0 0  0.0144 0 0  0.0148 0 0  0.0152 0 0  0.0156 0 0  0.016 0 0  0.0164 0 0  0.0168 0 0  0.0172 0 0  0.0176 0 0  0.018 0 0  0.0184 0 0  0.0188 0 0  0.0192 0 0  0.0196 0 0  0.02 0 0  0 0.0012 0  0.0004 0.0012 0  0.0008 0.0012 0  0.0012 0.0012 0  0.0016 0.0012 0  0.002 0.0012 0  0.0024 0.0012 0  0.0028 0.0012 0  0.0032 0.0012 0  0.0036 0.0012 0  0.004 0.0012 0  0.0044 0.0012 0  0.0048 0.0012 0  0.0052 0.0012 0  0.005600000000000001 0.0012 0  0.006 0.0012 0  0.0064 0.0012 0  0.0068 0.0012 0  0.0072 0.0012 0  0.0076 0.0012 0  0.008 0.0012 0  0.008399999999999999 0.0012 0  0.008800000000000001 0.0012 0  0.0092 0.0012 0  0.009599999999999999 0.0012 0  0.01 0.0012 0  0.0104 0.0012 0  0.0108 0.0012 0  0.0112 0.0012 0  0.0116 0.0012 0  0.012 0.0012 0  0.0124 0.0012 0  0.0128 0.0012 0  0.0132 0.0012 0  0.0136 0.0012 0  0.014 0.0012 0  0.0144 0.0012 0  0.0148 0.0012 0  0.0152 0.0012 0  0.0156 0.0012 0  0.016 0.0012 0  0.0164 0.0012 0  0.0168 0.0012 0  0.0172 0.0012 0  0.0176 0.0012 0  0.018 0.0012 0  0.0184 0.0012 0  0.0188 0.0012 0  0.0192 0.0012 0  0.0196 0.0012 0  0.02 0.0012 0  0 0.0024 0  0.0004 0.0024 0  0.0008 0.0024 0  0.0012 0.0024 0  0.0016 0.0024 0  0.002 0.0024 0  0.0024 0.0024 0  0.0028 0.0024 0  0.0032 0.0024 0  0.0036 0.0024 0  0.004 0.0024 0  0.0044 0.0024 0  0.0048 0.0024 0  0.0052 0.0024 0  0.005600000000000001 0.0024 0  0.006 0.0024 0  0.0064 0.0024 0  0.0068 0.0024 0  0.0072 0.0024 0  0.0076 0.0024 0  0.008 0.0024 0  0.008399999999999999 0.0024 0  0.008800000000000001 0.0024 0  0.0092 0.0024 0  0.009599999999999999 0.0024 0  0.01 0.0024 0  0.0104 0.0024 0  0.0108 0.0024 0  0.0112 0.0024 0  0.0116 0.0024 0  0.012 0.0024 0  0.0124 0.0024 0  0.0128 0.0024 0  0.0132 0.0024 0  0.0136 0.0024 0  0.014 0.0024 0  0.0144 0.0024 0  0.0148 0.0024 0  0.0152 0.0024 0  0.0156 0.0024 0  0.016 0.0024 0  0.0164 0.0024 0  0.0168 0.0024 0  0.0172 0.0024 0  0.0176 0.0024 0  0.018 0.0024 0  0.0184 0.0024 0  0.0188 0.0024 0  0.0192 0.0024 0  0.0196 0.0024 0  0.02 0.0024 0  0 0.0036 0  0.0004 0.0036 0  0.0008 0.0036 0  0.0012 0.0036 0  0.0016 0.0036 0  0.002 0.0036 0  0.0024 0.0036 0  0.0028 0.0036 0  0.0032 0.0036 0  0.0036 0.0036 0  0.004 0.0036 0  0.0044 0.0036 0  0.0048 0.0036 0  0.0052 0.0036 0  0.005600000000000001 0.0036 0  0.006 0.0036 0  0.0064 0.0036 0  0.0068 0.0036 0  0.0072 0.0036 0  0.0076 0.0036 0  0.008 0.0036 0  0.008399999999999999 0.0036 0  0.008800000000000001 0.0036 0  0.0092 0.0036 0  0.009599999999999999 0.0036 0  0.01 0.0036 0  0.0104 0.0036 0  0.0108 0.0036 0  0.0112 0.0036 0  0.0116 0.0036 0  0.012 0.0036 0  0.0124 0.0036 0  0.0128 0.0036 0  0.0132 0.0036 0  0.0136 0.0036 0  0.014 0.0036 0  0.0144 0.0036 0  0.0148 0.0036 0  0.0152 0.0036 0  0.0156 0.0036 0  0.016 0.0036 0  0.0164 0.0036 0  0.0168 0.0036 0  0.0172 0.0036 0  0.0176 0.0036 0  0.018 0.0036 0  0.0184 0.0036 0  0.0188 0.0036 0  0.0192 0.0036 0  0.0196 0.0036 0  0.02 0.0036 0  0 0.0048 0  0.0004 0.0048 0  0.0008 0.0048 0  0.0012 0.0048 0  0.0016 0.0048 0  0.002 0.0048 0  0.0024 0.0048 0  0.0028 0.0048 0  0.0032 0.0048 0  0.0036 0.0048 0  0.004 0.0048 0  0.0044 0.0048 0  0.0048 0.0048 0  0.0052 0.0048 0  0.005600000000000001 0.0048 0  0.006 0.0048 0  0.0064 0.0048 0  0.0068 0.0048 0  0.0072 0.0048 0  0.0076 0.0048 0  0.008 0.0048 0  0.008399999999999999 0.0048 0  0.008800000000000001 0.0048 0  0.0092 0.0048 0  0.009599999999999999 0.0048 0  0.01 0.0048 0  0.0104 0.0048 0  0.0108 0.0048 0  0.0112 0.0048 0  0.0116 0.0048 0  0.012 0.0048 0  0.0124 0.0048 0  0.0128 0.0048 0  0.0132 0.0048 0  0.0136 0.0048 0  0.014 0.0048 0  0.0144 0.0048 0  0.0148 0.0048 0  0.0152 0.0048 0  0.0156 0.0048 0  0.016 0.0048 0  0.0164 0.0048 0  0.0168 0.0048 0  0.0172 0.0048 0  0.0176 0.0048 0  0.018 0.0048 0  0.0184 0.0048 0  0.0188 0.0048 0  0.0192 0.0048 0  0.0196 0.0048 0  0.02 0.0048 0  0 0.006 0  0.0004 0.006 0  0.0008 0.006 0  0.0012 0.006 0  0.0016 0.006 0  0.002 0.006 0  0.0024 0.006 0  0.0028 0.006 0  0.0032 0.006 0  0.0036 0.006 0  0.004 0.006 0  0.0044 0.006 0  0.0048 0.006 0  0.0052 0.006 0  0.005600000000000001 0.006 0  0.006 0.006 0  0.0064 0.006 0  0.0068 0.006 0  0.0072 0.006 0  0.0076 0.006 0  0.008 0.006 0  0.008399999999999999 0.006 0  0.008800000000000001 0.006 0  0.0092 0.006 0  0.009599999999999999 0.006 0  0.01 0.006 0  0.0104 0.006 0  0.0108 0.006 0  0.0112 0.006 0  0.0116 0.006 0  0.012 0.006 0  0.0124 0.006 0  0.0128 0.006 0  0.0132 0.006 0  0.0136 0.006 0  0.014 0.006 0  0.0144 0.006 0  0.0148 0.006 0  0.0152 0.006 0  0.0156 0.006 0  0.016 0.006 0  0.0164 0.006 0  0.0168 0.006 0  0.0172 0.006 0  0.0176 0.006 0  0.018 0.006 0  0.0184 0.006 0  0.0188 0.006 0  0.0192 0.006 0  0.0196 0.006 0  0.02 0.006 0  0 0.007200000000000001 0  0.0004 0.007200000000000001 0  0.0008 0.007200000000000001 0  0.0012 0.007200000000000001 0  0.0016 0.007200000000000001 0  0.002 0.007200000000000001 0  0.0024 0.007200000000000001 0  0.0028 0.007200000000000001 0  0.0032 0.007200000000000001 0  0.0036 0.007200000000000001 0  0.004 0.007200000000000001 0  0.0044 0.007200000000000001 0  0.0048 0.007200000000000001 0  0.0052 0.007200000000000001 0  0.005600000000000001 0.007200000000000001 0  0.006 0.007200000000000001 0  0.0064 0.007200000000000001 0  0.0068 0.007200000000000001 0  0.0072 0.007200000000000001 0  0.0076 0.007200000000000001 0  0.008 0.007200000000000001 0  0.008399999999999999 0.007200000000000001 0  0.008800000000000001 0.007200000000000001 0  0.0092 0.007200000000000001 0  0.009599999999999999 0.007200000000000001 0  0.01 0.007200000000000001 0  0.0104 0.007200000000000001 0  0.0108 0.007200000000000001 0  0.0112 0.007200000000000001 0  0.0116 0.007200000000000001 0  0.012 0.007200000000000001 0  0.0124 0.007200000000000001 0  0.0128 0.007200000000000001 0  0.0132 0.007200000000000001 0  0.0136 0.007200000000000001 0  0.014 0.007200000000000001 0  0.0144 0.007200000000000001 0  0.0148 0.007200000000000001 0  0.0152 0.007200000000000001 0  0.0156 0.007200000000000001 0  0.016 0.007200000000000001 0  0.0164 0.007200000000000001 0  0.0168 0.007200000000000001 0  0.0172 0.007200000000000001 0  0.0176 0.007200000000000001 0  0.018 0.007200000000000001 0  0.0184 0.007200000000000001 0  0.0188 0.007200000000000001 0  0.0192 0.007200000000000001 0  0.0196 0.007200000000000001 0  0.02 0.007200000000000001 0  0 0.008400000000000001 0  0.0004 0.008400000000000001 0  0.0008 0.008400000000000001 0  0.0012 0.008400000000000001 0  0.0016 0.008400000000000001 0  0.002 0.008400000000000001 0  0.0024 0.008400000000000001 0  0.0028 0.008400000000000001 0  0.0032 0.008400000000000001 0  0.0036 0.008400000000000001 0  0.004 0.008400000000000001 0  0.0044 0.008400000000000001 0  0.0048 0.008400000000000001 0  0.0052 0.008400000000000001 0  0.005600000000000001 0.008400000000000001 0  0.006 0.008400000000000001 0  0.0064 0.008400000000000001 0  0.0068 0.008400000000000001 0  0.0072 0.008400000000000001 0  0.0076 0.008400000000000001 0  0.008 0.008400000000000001 0  0.008399999999999999 0.008400000000000001 0  0.008800000000000001 0.008400000000000001 0  0.0092 0.008400000000000001 0  0.009599999999999999 0.008400000000000001 0  0.01 0.008400000000000001 0  0.0104 0.008400000000000001 0  0.0108 0.008400000000000001 0  0.0112 0.008400000000000001 0  0.0116 0.008400000000000001 0  0.012 0.008400000000000001 0  0.0124 0.008400000000000001 0  0.0128 0.008400000000000001 0  0.0132 0.008400000000000001 0  0.0136 0.008400000000000001 0  0.014 0.008400000000000001 0  0.0144 0.008400000000000001 0  0.0148 0.008400000000000001 0  0.0152 0.008400000000000001 0  0.0156 0.008400000000000001 0  0.016 0.008400000000000001 0  0.0164 0.008400000000000001 0  0.0168 0.008400000000000001 0  0.0172 0.008400000000000001 0  0.0176 0.008400000000000001 0  0.018 0.008400000000000001 0  0.0184 0.008400000000000001 0  0.0188 0.008400000000000001 0  0.0192 0.008400000000000001 0  0.0196 0.008400000000000001 0  0.02 0.008400000000000001 0  0 0.009600000000000001 0  0.0004 0.009600000000000001 0  0.0008 0.009600000000000001 0  0.0012 0.009600000000000001 0  0.0016 0.009600000000000001 0  0.002 0.009600000000000001 0  0.0024 0.009600000000000001 0  0.0028 0.009600000000000001 0  0.0032 0.009600000000000001 0  0.0036 0.009600000000000001 0  0.004 0.009600000000000001 0  0.0044 0.009600000000000001 0  0.0048 0.009600000000000001 0  0.0052 0.009600000000000001 0  0.005600000000000001 0.009600000000000001 0  0.006 0.009600000000000001 0  0.0064 0.009600000000000001 0  0.0068 0.009600000000000001 0  0.0072 0.009600000000000001 0  0.0076 0.009600000000000001 0  0.008 0.009600000000000001 0  0.008399999999999999 0.009600000000000001 0  0.008800000000000001 0.009600000000000001 0  0.0092 0.009600000000000001 0  0.009599999999999999 0.009600000000000001 0  0.01 0.009600000000000001 0  0.0104 0.009600000000000001 0  0.0108 0.009600000000000001 0  0.0112 0.009600000000000001 0  0.0116 0.009600000000000001 0  0.012 0.009600000000000001 0  0.0124 0.009600000000000001 0  0.0128 0.009600000000000001 0  0.0132 0.009600000000000001 0  0.0136 0.009600000000000001 0  0.014 0.009600000000000001 0  0.0144 0.009600000000000001 0  0.0148 0.009600000000000001 0  0.0152 0.009600000000000001 0  0.0156 0.009600000000000001 0  0.016 0.009600000000000001 0  0.0164 0.009600000000000001 0  0.0168 0.009600000000000001 0  0.0172 0.009600000000000001 0  0.017
[...]
<PointData  Scalars="T [K]"> 
<DataArray  type="Float64"  Name="T [K]"  format="ascii">1.9999999999999996e+01  2.0000000000000000e+01  1.9999999999999996e+01  2.0000000000000000e+01  2.0000000000000000e+01  2.0000000000000000e+01  2.0000000000000000e+01  2.0000000000000000e+01  2.0000000000000000e+01  2.0000000000000000e+01  2.0000000000000000e+01  2.0000000000000000e+01  2.0000000000000000e+01  2.0000000000000000e+01  2.0000000000000000e+01  2.0000000000000000e+01  2.0000000000000000e+01  2.0000000000000000e+01  2.0000000000000000e+01  2.0000000000000000e+01  2.0000000000000000e+01  2.0000000000000000e+01  2.0000000000000000e+01  2.0000000000000000e+01  2.0000000000000000e+01  2.0000000000000000e+01  2.0000000000000000e+01  2.0000000000000000e+01  2.0000000000000000e+01  2.0000000000000000e+01  2.0000000000000000e+01  2.0000000000000000e+01  2.0000000000000000e+01  2.0000000000000000e+01  2.0000000000000000e+01  2.0000000000000000e+01  2.0000000000000000e+01  2.0000000000000000e+01  2.0000000000000000e+01  2.0000000000000000e+01  2.0000000000000000e+01  2.0000000000000000e+01  2.0000000000000000e+01  2.0000000000000000e+01  2.0000000000000000e+01  2.0000000000000000e+01  2.0000000000000000e+01  2.0000000000000000e+01  2.0000000000000004e+01  2.0000000000000000e+01  2.0000000000000000e+01  2.9834740317156449e+01  2.9835683795329707e+01  2.9836418994801768e+01  2.9837005741096178e+01  2.9837483793540166e+01  2.9837880150465320e+01  2.9838213572139527e+01  2.9838497414080738e+01  2.9838741423973072e+01  2.9838952896197107e+01  2.9839137423882892e+01  2.9839299396004140e+01  2.9839442331140749e+01  2.9839569105408881e+01  2.9839682111014643e+01  2.9839783368785234e+01  2.9839874609793778e+01  2.9839957335965281e+01  2.9840032866202158e+01  2.9840102372404296e+01  2.9840166908350184e+01  2.9840227433482013e+01  2.9840284833029045e+01  2.9840339935500765e+01  2.9840393528314817e+01  2.9840446372150176e+01  2.9840499214505023e+01  2.9840552802872793e+01  2.9840607897919440e+01  2.9840665287045400e+01  2.9840725798745837e+01  2.9840790318249354e+01  2.9840859805026394e+01  2.9840935312933734e+01  2.9841018014028183e+01  2.9841109227485994e+01  2.9841210455674421e+01  2.9841323430346140e+01  2.9841450173338149e+01  2.9841593078322791e+01  2.9841755023512643e+01  2.9841939530457058e+01  2.9842150992318352e+01  2.9842395008138226e+01  2.9842678880681646e+01  2.9843012369630380e+01  2.9843408847883243e+01  2.9843887101270447e+01  2.9844474166362758e+01  2.9845209860725603e+01  2.9846154100187945e+01  4.0024739589440621e+01  4.0025809629333146e+01  4.0026749168862828e+01  4.0027570993379960e+01  4.0028289221692106e+01  4.0028917386074447e+01  4.0029467679989828e+01  4.0029950768524238e+01  4.0030375850846802e+01  4.0030750819740398e+01  4.0031082444454960e+01  4.0031376544566506e+01  4.0031638142970287e+01  4.0031871595698043e+01  4.0032080700304704e+01  4.0032268785947174e+01  4.0032438788433957e+01  4.0032593313188379e+01  4.0032734688588981e+01  4.0032865011681700e+01  4.0032986187857119e+01  4.0033099965766020e+01  4.0033207968500967e+01  4.0033311721888445e+01  4.0033412680603142e+01  4.0033512252721579e+01  4.0033611823268430e+01  4.0033712777269706e+01  4.0033816522807960e+01  4.0033924514575219e+01  4.0034038278438061e+01  4.0034159437569272e+01  4.0034289740764592e+01  4.0034431093657780e+01  4.0034585593681037e+01  4.0034755569801099e+01  4.0034943628307872e+01  4.0035152706252646e+01  4.0035386134534825e+01  4.0035647713104993e+01  4.0035941801230216e+01  4.0036273426101232e+01  4.0036648412898906e+01  4.0037073538048844e+01  4.0037556703314301e+01  4.0038107118773219e+01  4.0038735462196897e+01  4.0039453940763707e+01  4.0040276099548585e+01  4.0041216064957744e+01  4.0042286615984281e+01  5.0688945879806013e+01  5.0690090320248601e+01  5.0691130126214780e+01  5.0692069487851363e+01  5.0692914383123266e+01  5.0693671834295543e+01  5.0694349329533857e+01  5.0694954411441344e+01  5.0695494404103755e+01  5.0695976245176595e+01  5.0696406393544073e+01  5.0696790789323785e+01  5.0697134848911340e+01  5.0697443482598857e+01  5.0697721125995706e+01  5.0697971779204906e+01  5.0698199049680973e+01  5.0698406196101352e+01  5.0698596171580753e+01  5.0698771665255514e+01  5.0698935141751107e+01  5.0699088878377466e+01  5.0699235000122783e+01  5.0699375512664488e+01  5.0699512333713848e+01  5.0699647323070558e+01  5.0699782311801322e+01  5.0699919130976433e+01  5.0700059640407765e+01  5.0700205757831796e+01  5.0700359488972190e+01  5.0700522958896343e+01  5.0700698445043678e+01  5.0700888412243010e+01  5.0701095549939737e+01  5.0701322811704920e+01  5.0701573456873582e+01  5.0701851093826370e+01  5.0702159723943616e+01  5.0702503784559994e+01  5.0702888188249325e+01  5.0703318354356057e+01  5.0703800226711465e+01  5.0704340268734619e+01  5.0704945423408191e+01  5.0705623020760264e+01  5.0706380609542492e+01  5.0707225683542148e+01  5.0708165268994492e+01  5.0709205344711940e+01  5.0710350097099983e+01  6.1953092465969348e+01  6.1954310552781898e+01  6.1955425160479038e+01  6.1956439279254980e+01  6.1957357520850820e+01  6.1958185697117528e+01  6.1958930391167144e+01  6.1959598574995290e+01  6.1960197299473201e+01  6.1960733462702279e+01  6.1961213650856884e+01  6.1961644039950464e+01  6.1962030345338327e+01  6.1962377806483353e+01  6.1962691196334141e+01  6.1962974846833546e+01  6.1963232684160197e+01  6.1963468269108546e+01  6.1963684839465472e+01  6.1963885352359931e+01  6.1964072525386086e+01  6.1964248875888664e+01  6.1964416758207221e+01  6.1964578398949001e+01  6.1964735930536790e+01  6.1964891423390711e+01  6.1965046917169389e+01  6.1965204451531747e+01  6.1965366096898876e+01  6.1965533985693462e+01  6.1965710344519543e+01  6.1965897527707732e+01  6.1966098052584449e+01  6.1966314636713300e+01  6.1966550237177842e+01  6.1966808091704209e+01  6.1967091761013670e+01  6.1967405171208213e+01  6.1967752654168102e+01  6.1968138982824101e+01  6.1968569396714003e+01  6.1969049611430449e+01  6.1969585803482438e+01  6.1970184559919716e+01  6.1970852780242907e+01  6.1971597517397917e+01  6.1972425746264250e+01  6.1973344053721881e+01  6.1974358256240770e+01  6.1975472970849189e+01  6.1976691193366769e+01  7.3950270500407839e+01  7.3951567239675384e+01  7.3952742846898289e+01  7.3953802114946910e+01  7.3954752143475005e+01  7.3955601469045064e+01  7.3956359294921199e+01  7.3957034899761553e+01  7.3957637232877829e+01  7.3958174669103002e+01  7.3958654885225528e+01  7.3959084821256496e+01  7.3959470696265001e+01  7.3959818056135916e+01  7.3960131837491517e+01  7.3960416437504875e+01  7.3960675783368387e+01  7.3960913397974821e+01  7.3961132460203814e+01  7.3961335859348296e+01  7.3961526243884109e+01  7.3961706065144313e+01  7.3961877616626495e+01  7.3962043069714966e+01  7.3962204506596194e+01  7.3962363951114142e+01  7.3962523398275891e+01  7.3962684843090102e+01  7.3962850309402810e+01  7.3963021879396223e+01  7.3963201724431599e+01  7.3963392137946272e+01  7.3963595571151174e+01  7.3963814672304764e+01  7.3964052330345709e+01  7.3964311723610919e+01  7.3964596374201079e+01  7.3964910208198120e+01  7.3965257621273878e+01  7.3965643548091407e+01  7.3966073532070510e+01  7.3966553789305820e+01  7.3967091256399797e+01  7.3967693606500831e+01  7.3968369210961754e+01  7.3969127016417190e+01  7.3969976300593970e+01  7.3970926268800113e+01  7.3971985463989299e+01  7.3973160997693256e+01  7.3974457680359365e+01  8.6822413790931805e+01  8.6823789020039854e+01  8.6824996252574124e+01  8.6826049135555323e+01  8.6826965183062015e+01  8.6827762699790938e+01  8.6828458946930112e+01  8.6829069266354125e+01  8.6829606819717128e+01  8.6830082670031103e+01  8.6830506023423794e+01  8.6830884522276747e+01  8.6831224531688079e+01  8.6831531392803214e+01  8.6831809634592346e+01  8.6832063144976630e+01  8.6832295306345401e+01  8.6832509101781227e+01  8.6832707198142288e+01  8.6832892011365175e+01  8.6833065758384890e+01  8.6833230499144307e+01  8.6833388171370217e+01  8.6833540620154068e+01  8.6833689623888205e+01  8.6833836917748386e+01  8.6833984215668622e+01  8.6834133231596894e+01  8.6834285700748765e+01  8.6834443401573509e+01  8.6834608179222229e+01  8.6834781971461169e+01  8.6834966838219970e+01  8.6835164996321936e+01  8.6835378861431025e+01  8.6835611099887927e+01  8.6835864693901826e+01  8.6836143024488905e+01  8.6836449977515159e+01  8.6836790078991626e+01  8.6837168665942670e+01  8.6837592097907944e+01  8.6838068010024088e+01  8.6838605599349904e+01  8.6839215918131771e+01  8.6839912116204388e+01  8.6840709524099836e+01  8.6841625395044858e+01  8.6842678033904676e+01  8.6843884969665226e+01  8.6845259885840363e+01  1.0072208832671215e+02  1.0072350712551970e+02  1.0072463709115598e+02  1.0072553805497029e+02  1.0072626587873542e+02  1.0072686537678629e+02  1.0072736995912092e+02  1.0072780355754678e+02  1.0072818296132985e+02  1.0072851986964253e+02  1.0072882248196346e+02  1.0072909664959424e+02  1.0072934667437212e+02  1.0072957584629224e+02  1.0072978679736670e+02  1.0072998173053617e+02  1.0073016256582885e+02  1.0073033103290278e+02  1.0073048872953713e+02  1.0073063715892594e+02  1.0073077775405673e+02  1.0073091189441283e+02  1.0073104091824834e+02  1.0073116613240541e+02  1.0073128882083078e+02  1.0073141025244855e+02  1.0073153168874082e+02  1.0073165439121954e+02  1.0073177962889764e+02  1.0073190868586597e+02  1.0073204286915913e+02  1.0073218351726152e+02  1.0073233200990742e+02  1.0073248978033091e+02  1.0073265833192914e+02  1.0073283926258318e+02  1.0073303430186425e+02  1.0073324536939387e+02  1.0073347466719002e+02  1.0073372482553526e+02  1.0073399913146147e+02  1.0073430188199272e+02  1.0073463892090196e+02  1.0073501843625363e+02  1.0073545211044646e+02  1.0073595670898973e+02  1.0073655613172222e+02  1.0073728374905517e+02  1.0073818433387115e+02  1.0073931372284952e+02  1.0074073178472760e+02  1.1581494466540707e+02  1.1581606100314104e+02  1.1581658746987306e+02  1.1581684351182295e+02  1.1581698773169994e+02  1.1581709515851563e+02  1.1581719835882953e+02  1.1581730906964745e+02  1.1581742939808676e+02  1.1581755747836526e+02  1.1581769021912403e+02  1.1581782454999257e+02  1.1581795791467241e+02  1.1581808840184397e+02  1.1581821471494365e+02  1.1581833608112797e+02  1.1581845214714050e+02  1.1581856288288418e+02  1.1581866850015696e+02  1.1581876938773006e+02  1.1581886606126044e+02  1.1581895912560626e+02  1.1581904924700775e+02  1.1581913713282154e+02  1.1581922351681820e+02  1.1581930914836174e+02  1.1581939478403631e+02  1.1581948118045467e+02  1.1581956908706654e+02  1.1581965923778601e+02  1.1581975234017183e+02  1.1581984906072690e+02  1.1581995000463482e+02  1.1582005568794450e+02  1.1582016649989052e+02  1.1582028265281073e+02  1.1582040411722893e+02  1.1582053054058949e+02  1.1582066115081361e+02  1.1582079465211527e+02  1.1582092913384066e+02  1.1582106203996923e+02  1.1582119029944820e+02  1.1582131081813156e+02  1.1582142172311501e+02  1.1582152510578878e+02  1.1582163267075491e+02  1.1582177692037082e+02  1.1582203275950516e+02  1.1582255855465237e+02  1.1582367330750003e+02  1.3228730867254444e+02  1.3228250766733066e+02  1.3227955789451306e+02  1.3227774287695101e+02  1.3227662928083350e+02  1.3227595265791922e+02  1.3227555012984325e+02  1.3227532043951524e+02  1.3227520005920246e+02  1.3227514878357255e+02  1.3227514096643034e+02  1.3227516014151433e+02  1.3227519568905822e+02  1.3227524074975597e+02  1.3227529090621667e+02  1.3227534334108321e+02  1.3227539629407809e+02  1.3227544870838182e+02  1.3227549999813780e+02  1.3227554989422018e+02  1.3227559834105037e+02  1.3227564542699380e+02  1.3227569133698441e+02  1.3227573631989131e+02  1.3227578066559269e+02  1.3227582468827200e+02  1.3227586871340878e+02  1.3227591306649012e+02  1.3227595806172135e+02  1.3227600398901475e+02  1.3227605109728202e+02  1.3227609957150273e+02  1.3227614950008294e+02  1.3227620082746955e+02  1.3227625328453229e+02  1.3227630628536167e+02  1.3227635877301032e+02  1.3227640898696245e+02  1.3227645410946272e+02  1.3227648972249077e+02  1.3227650896577842e+02  1.3227650121811257e+02  1.3227645001107419e+02  1.3227632969525206e+02  1.3227610006049969e+02  1.3227569757182076e+02  1.3227502096105042e+02  1.3227390733273694e+02  1.3227209221193851e+02  1.3226914222258273e+02  1.3226434081979349e+02  1.5000000000000000e+02  1.5000000000000000e+02  1.5000000000000000e+02  1.5000000000000000e+02  1.4999999999999997e+02  1.4999999999999997e+02  1.4999999999999997e+02  1.4999999999999997e+02  1.4999999999999997e+02  1.4999999999999997e+02  1.4999999999999997e+02  1.4999999999999997e+02  1.4999999999999997e+02  1.4999999999999997e+02  1.4999999999999997e+02  1.4999999999999997e+02  1.4999999999999997e+02  1.4999999999999997e+02  1.4999999999999997e+02  1.4999999999999997e+02  1.4999999999999997e+02  1.4999999999999997e+02  1.4999999999999997e+02  1.4999999999999997e+02  1.4999999999999997e+02  1.4999999999999997e+02  1.4999999999999997e+02  1.4999999999999997e+02  1.4999999999999997e+02  1.4999999999999997e+02  1.4999999999999997e+02  1.4999999999999997e+02  1.4999999999999997e+02  1.4999999999999997e+02  1.4999999999999997e+02  1.4999999999999997e+02  1.4999999999999997e+02  1.4999999999999997e+02  1.4999999999999997e+02  1.4999999999999997e+02  1.4999999999999997e+02  1.4999999999999997e+02  1.4999999999999997e+02  1.4999999999999997e+02  1.4999999999999997e+02  1.4999999999999997e+02  1.4999999999999997e+02  1.4999999999999997e+02  1.5000000000000000e+02  1.5000000000000000e+02  1.4999999999999997e+02  </DataArray> 
</PointData> 
</Piece>
</UnstructuredGrid>
</VTKFile>