<?xml version="1.0"?>
<VTKFile type="UnstructuredGrid"  version="0.1"  >
<UnstructuredGrid>
<Piece  NumberOfPoints="561" NumberOfCells="1000">
<Points>
<DataArray  type="Float64"  NumberOfComponents="3"  format="ascii">0 0 0  0.0004 0 0  0.0008 0 0  0.0012 0 0  0.0016 0 0  0.002 0 0  0.0024 0 0  0.0028 0 0  0.0032 0 0  0.0036 0 0  0.004 0 0  0.0044 0 0  0.0048 0 0  0.0052 0 0  0.005600000000000001 0 0  0.006 0 0  0.0064 0 0  0.0068 0 0  0.0072 0 0  0.0076 0 0  0.008 0 0  0.008399999999999999 0 0  0.008800000000000001 0 0  0.0092 0 0  0.009599999999999999 0 0  0.01 0 0  0.0104 0 0  0.0108 0 0  0.0112 0 0  0.0116 0 0  0.012 0 0  0.0124 0 0  0.0128 0 0  0.0132 0 0  0.0136 0 0  0.014 0 0  0.0144 0 0  0.0148 0 0  0.0152 0 0  0.0156 0 0  0.016 0 0  0.0164 0 0  0.0168 0 0  0.0172 0 0  0.0176 0 0  0.018 0 0  0.0184 0 0  0.0188 0 0  0.0192 0 0  0.0196 0 0  0.02 0 0  0 0.0012 0  0.0004 0.0012 0  0.0008 0.0012 0  0.0012 0.0012 0  0.0016 0.0012 0  0.002 0.0012 0  0.0024 0.0012 0  0.0028 0.0012 0  0.0032 0.0012 0  0.0036 0.0012 0  0.004 0.0012 0  0.0044 0.0012 0  0.0048 0.0012 0  0.0052 0.0012 0  0.005600000000000001 0.0012 0  0.006 0.0012 0  0.0064 0.0012 0  0.0068 0.0012 0  0.0072 0.0012 0  0.0076 0.0012 0  0.008 0.0012 0  0.008399999999999999 0.0012 0  0.008800000000000001 0.0012 0  0.0092 0.0012 0  0.009599999999999999 0.0012 0  0.01 0.0012 0  0.0104 0.0012 0  0.0108 0.0012 0  0.0112 0.0012 0  0.0116 0.0012 0  0.012 0.0012 0  0.0124 0.0012 0  0.0128 0.0012 0  0.0132 0.0012 0  0.0136 0.0012 0  0.014 0.0012 0  0.0144 0.0012 0  0.0148 0.0012 0  0.0152 0.0012 0  0.0156 0.0012 0  0.016 0.0012 0  0.0164 0.0012 0  0.0168 0.0012 0  0.0172 0.0012 0  0.0176 0.0012 0  0.018 0.0012 0  0.0184 0.0012 0  0.0188 0.0012 0  0.0192 0.0012 0  0.0196 0.0012 0  0.02 0.0012 0  0 0.0024 0  0.0004 0.0024 0  0.0008 0.0024 0  0.0012 0.0024 0  0.0016 0.0024 0  0.002 0.0024 0  0.0024 0.0024 0  0.0028 0.0024 0  0.0032 0.0024 0  0.0036 0.0024 0  0.004 0.0024 0  0.0044 0.0024 0  0.0048 0.0024 0  0.0052 0.0024 0  0.005600000000000001 0.0024 0  0.006 0.0024 0  0.0064 0.0024 0  0.0068 0.0024 0  0.0072 0.0024 0  0.0076 0.0024 0  0.008 0.0024 0  0.008399999999999999 0.0024 0  0.008800000000000001 0.0024 0  0.0092 0.0024 0  0.009599999999999999 0.0024 0  0.01 0.0024 0  0.0104 0.0024 0  0.0108 0.0024 0  0.0112 0.0024 0  0.0116 0.0024 0  0.012 0.0024 0  0.0124 0.0024 0  0.0128 0.0024 0  0.0132 0.0024 0  0.0136 0.0024 0  0.014 0.0024 0  0.0144 0.0024 0  0.0148 0.0024 0  0.0152 0.0024 0  0.0156 0.0024 0  0.016 0.0024 0  0.0164 0.0024 0  0.0168 0.0024 0  0.0172 0.0024 0  0.0176 0.0024 0  0.018 0.0024 0  0.0184 0.0024 0  0.0188 0.0024 0  0.0192 0.0024 0  0.0196 0.0024 0  0.02 0.0024 0  0 0.0036 0  0.0004 0.0036 0  0.0008 0.0036 0  0.0012 0.0036 0  0.0016 0.0036 0  0.002 0.0036 0  0.0024 0.0036 0  0.0028 0.0036 0  0.0032 0.0036 0  0.0036 0.0036 0  0.004 0.0036 0  0.0044 0.0036 0  0.0048 0.0036 0  0.0052 0.0036 0  0.005600000000000001 0.0036 0  0.006 0.0036 0  0.0064 0.0036 0  0.0068 0.0036 0  0.0072 0.0036 0  0.0076 0.0036 0  0.008 0.0036 0  0.008399999999999999 0.0036 0  0.008800000000000001 0.0036 0  0.0092 0.0036 0  0.009599999999999999 0.0036 0  0.01 0.0036 0  0.0104 0.0036 0  0.0108 0.0036 0  0.0112 0.0036 0  0.0116 0.0036 0  0.012 0.0036 0  0.0124 0.0036 0  0.0128 0.0036 0  0.0132 0.0036 0  0.0136 0.0036 0  0.014 0.0036 0  0.0144 0.0036 0  0.0148 0.0036 0  0.0152 0.0036 0  0.0156 0.0036 0  0.016 0.0036 0  0.0164 0.0036 0  0.0168 0.0036 0  0.0172 0.0036 0  0.0176 0.0036 0  0.018 0.0036 0  0.0184 0.0036 0  0.0188 0.0036 0  0.0192 0.0036 0  0.0196 0.0036 0  0.02 0.0036 0  0 0.0048 0  0.0004 0.0048 0  0.0008 0.0048 0  0.0012 0.0048 0  0.0016 0.0048 0  0.002 0.0048 0  0.0024 0.0048 0  0.0028 0.0048 0  0.0032 0.0048 0  0.0036 0.0048 0  0.004 0.0048 0  0.0044 0.0048 0  0.0048 0.0048 0  0.0052 0.0048 0  0.005600000000000001 0.0048 0  0.006 0.0048 0  0.0064 0.0048 0  0.0068 0.0048 0  0.0072 0.0048 0  0.0076 0.0048 0  0.008 0.0048 0  0.008399999999999999 0.0048 0  0.008800000000000001 0.0048 0  0.0092 0.0048 0  0.009599999999999999 0.0048 0  0.01 0.0048 0  0.0104 0.0048 0  0.0108 0.0048 0  0.0112 0.0048 0  0.0116 0.0048 0  0.012 0.0048 0  0.0124 0.0048 0  0.0128 0.0048 0  0.0132 0.0048 0  0.0136 0.0048 0  0.014 0.0048 0  0.0144 0.0048 0  0.0148 0.0048 0  0.0152 0.0048 0  0.0156 0.0048 0  0.016 0.0048 0  0.0164 0.0048 0  0.0168 0.0048 0  0.0172 0.0048 0  0.0176 0.0048 0  0.018 0.0048 0  0.0184 0.0048 0  0.0188 0.0048 0  0.0192 0.0048 0  0.0196 0.0048 0  0.02 0.0048 0  0 0.006 0  0.0004 0.006 0  0.0008 0.006 0  0.0012 0.006 0  0.0016 0.006 0  0.002 0.006 0  0.0024 0.006 0  0.0028 0.006 0  0.0032 0.006 0  0.0036 0.006 0  0.004 0.006 0  0.0044 0.006 0  0.0048 0.006 0  0.0052 0.006 0  0.005600000000000001 0.006 0  0.006 0.006 0  0.0064 0.006 0  0.0068 0.006 0  0.0072 0.006 0  0.0076 0.006 0  0.008 0.006 0  0.008399999999999999 0.006 0  0.008800000000000001 0.006 0  0.0092 0.006 0  0.009599999999999999 0.006 0  0.01 0.006 0  0.0104 0.006 0  0.0108 0.006 0  0.0112 0.006 0  0.0116 0.006 0  0.012 0.006 0  0.0124 0.006 0  0.0128 0.006 0  0.0132 0.006 0  0.0136 0.006 0  0.014 0.006 0  0.0144 0.006 0  0.0148 0.006 0  0.0152 0.006 0  0.0156 0.006 0  0.016 0.006 0  0.0164 0.006 0  0.0168 0.006 0  0.0172 0.006 0  0.0176 0.006 0  0.018 0.006 0  0.0184 0.006 0  0.0188 0.006 0  0.0192 0.006 0  0.0196 0.006 0  0.02 0.006 0  0 0.007200000000000001 0  0.0004 0.007200000000000001 0  0.0008 0.007200000000000001 0  0.0012 0.007200000000000001 0  0.0016 0.007200000000000001 0  0.002 0.007200000000000001 0  0.0024 0.007200000000000001 0  0.0028 0.007200000000000001 0  0.0032 0.007200000000000001 0  0.0036 0.007200000000000001 0  0.004 0.007200000000000001 0  0.0044 0.007200000000000001 0  0.0048 0.007200000000000001 0  0.0052 0.007200000000000001 0  0.005600000000000001 0.007200000000000001 0  0.006 0.007200000000000001 0  0.0064 0.007200000000000001 0  0.0068 0.007200000000000001 0  0.0072 0.007200000000000001 0  0.0076 0.007200000000000001 0  0.008 0.007200000000000001 0  0.008399999999999999 0.007200000000000001 0  0.008800000000000001 0.007200000000000001 0  0.0092 0.007200000000000001 0  0.009599999999999999 0.007200000000000001 0  0.01 0.007200000000000001 0  0.0104 0.007200000000000001 0  0.0108 0.007200000000000001 0  0.0112 0.007200000000000001 0  0.0116 0.007200000000000001 0  0.012 0.007200000000000001 0  0.0124 0.007200000000000001 0  0.0128 0.007200000000000001 0  0.0132 0.007200000000000001 0  0.0136 0.007200000000000001 0  0.014 0.007200000000000001 0  0.0144 0.007200000000000001 0  0.0148 0.007200000000000001 0  0.0152 0.007200000000000001 0  0.0156 0.007200000000000001 0  0.016 0.007200000000000001 0  0.0164 0.007200000000000001 0  0.0168 0.007200000000000001 0  0.0172 0.007200000000000001 0  0.0176 0.007200000000000001 0  0.018 0.007200000000000001 0  0.0184 0.007200000000000001 0  0.0188 0.007200000000000001 0  0.0192 0.007200000000000001 0  0.0196 0.007200000000000001 0  0.02 0.007200000000000001 0  0 0.008400000000000001 0  0.0004 0.008400000000000001 0  0.0008 0.008400000000000001 0  0.0012 0.008400000000000001 0  0.0016 0.008400000000000001 0  0.002 0.008400000000000001 0  0.0024 0.008400000000000001 0  0.0028 0.008400000000000001 0  0.0032 0.008400000000000001 0  0.0036 0.008400000000000001 0  0.004 0.008400000000000001 0  0.0044 0.008400000000000001 0  0.0048 0.008400000000000001 0  0.0052 0.008400000000000001 0  0.005600000000000001 0.008400000000000001 0  0.006 0.008400000000000001 0  0.0064 0.008400000000000001 0  0.0068 0.008400000000000001 0  0.0072 0.008400000000000001 0  0.0076 0.008400000000000001 0  0.008 0.008400000000000001 0  0.008399999999999999 0.008400000000000001 0  0.008800000000000001 0.008400000000000001 0  0.0092 0.008400000000000001 0  0.009599999999999999 0.008400000000000001 0  0.01 0.008400000000000001 0  0.0104 0.008400000000000001 0  0.0108 0.008400000000000001 0  0.0112 0.008400000000000001 0  0.0116 0.008400000000000001 0  0.012 0.008400000000000001 0  0.0124 0.008400000000000001 0  0.0128 0.008400000000000001 0  0.0132 0.008400000000000001 0  0.0136 0.008400000000000001 0  0.014 0.008400000000000001 0  0.0144 0.008400000000000001 0  0.0148 0.008400000000000001 0  0.0152 0.008400000000000001 0  0.0156 0.008400000000000001 0  0.016 0.008400000000000001 0  0.0164 0.008400000000000001 0  0.0168 0.008400000000000001 0  0.0172 0.008400000000000001 0  0.0176 0.008400000000000001 0  0.018 0.008400000000000001 0  0.0184 0.008400000000000001 0  0.0188 0.008400000000000001 0  0.0192 0.008400000000000001 0  0.0196 0.008400000000000001 0  0.02 0.008400000000000001 0  0 0.009600000000000001 0  0.0004 0.009600000000000001 0  0.0008 0.009600000000000001 0  0.0012 0.009600000000000001 0  0.0016 0.009600000000000001 0  0.002 0.009600000000000001 0  0.0024 0.009600000000000001 0  0.0028 0.009600000000000001 0  0.0032 0.009600000000000001 0  0.0036 0.009600000000000001 0  0.004 0.009600000000000001 0  0.0044 0.009600000000000001 0  0.0048 0.009600000000000001 0  0.0052 0.009600000000000001 0  0.005600000000000001 0.009600000000000001 0  0.006 0.009600000000000001 0  0.0064 0.009600000000000001 0  0.0068 0.009600000000000001 0  0.0072 0.009600000000000001 0  0.0076 0.009600000000000001 0  0.008 0.009600000000000001 0  0.008399999999999999 0.009600000000000001 0  0.008800000000000001 0.009600000000000001 0  0.0092 0.009600000000000001 0  0.009599999999999999 0.009600000000000001 0  0.01 0.009600000000000001 0  0.0104 0.009600000000000001 0  0.0108 0.009600000000000001 0  0.0112 0.009600000000000001 0  0.0116 0.009600000000000001 0  0.012 0.009600000000000001 0  0.0124 0.009600000000000001 0  0.0128 0.009600000000000001 0  0.0132 0.009600000000000001 0  0.0136 0.009600000000000001 0  0.014 0.009600000000000001 0  0.0144 0.009600000000000001 0  0.0148 0.009600000000000001 0  0.0152 0.009600000000000001 0  0.0156 0.009600000000000001 0  0.016 0.009600000000000001 0  0.0164 0.009600000000000001 0  0.0168 0.009600000000000001 0  0.0172 0.009600000000000001 0  0.017
[...]
<PointData  Vectors="U [m]"> 
<DataArray  type="Float64"  Name="U [m]"  NumberOfComponents="3" format="ascii">-2.4120200009094538e-06 -3.2615456440853875e-05 0.0000000000000000e+00  -2.3837165840546262e-06 -3.2002909090193542e-05 0.0000000000000000e+00  -2.3587845605696780e-06 -3.1416622515354659e-05 0.0000000000000000e+00  -2.3342157418227954e-06 -3.0866607014705752e-05 0.0000000000000000e+00  -2.3066373265590339e-06 -3.0357847141146410e-05 0.0000000000000000e+00  -2.2727744734166993e-06 -2.9892169840368160e-05 0.0000000000000000e+00  -2.2297176910895504e-06 -2.9469340939092393e-05 0.0000000000000000e+00  -2.1750625548257720e-06 -2.9087772370746744e-05 0.0000000000000000e+00  -2.1069648507842543e-06 -2.8745012541907437e-05 0.0000000000000000e+00  -2.0241401368014708e-06 -2.8438101503070669e-05 0.0000000000000000e+00  -1.9258280343666019e-06 -2.8163832563129716e-05 0.0000000000000000e+00  -1.8117358238119272e-06 -2.7918944017910893e-05 0.0000000000000000e+00  -1.6819718346011055e-06 -2.7700256390913904e-05 0.0000000000000000e+00  -1.5369760723561069e-06 -2.7504766553731494e-05 0.0000000000000000e+00  -1.3774531842219677e-06 -2.7329707875898725e-05 0.0000000000000000e+00  -1.2043110616371020e-06 -2.7172584084192277e-05 0.0000000000000000e+00  -1.0186070073837658e-06 -2.7031183345822298e-05 0.0000000000000000e+00  -8.2150237304006563e-07 -2.6903578063395131e-05 0.0000000000000000e+00  -6.1422583772242286e-07 -2.6788114935136415e-05 0.0000000000000000e+00  -3.9804499114585609e-07 -2.6683398988622447e-05 0.0000000000000000e+00  -1.7424555201912865e-07 -2.6588274547909303e-05 0.0000000000000000e+00  5.5882648148552306e-08 -2.6501805447837064e-05 0.0000000000000000e+00  2.9105389348517924e-07 -2.6423256264534998e-05 0.0000000000000000e+00  5.2999004766933148e-07 -2.6352075880686735e-05 0.0000000000000000e+00  7.7142028461715618e-07 -2.6287884336102896e-05 0.0000000000000000e+00  1.0140781066403537e-06 -2.6230463613637468e-05 0.0000000000000000e+00  1.2566966551896714e-06 -2.6179752760781671e-05 0.0000000000000000e+00  1.4980033078492777e-06 -2.6135847530980702e-05 0.0000000000000000e+00  1.7367145529316781e-06 -2.6099004528511713e-05 0.0000000000000000e+00  1.9715321409969978e-06 -2.6069649639976559e-05 0.0000000000000000e+00  2.2011415282854279e-06 -2.6048390318747269e-05 0.0000000000000000e+00  2.4242136439891872e-06 -2.6036031042791685e-05 0.0000000000000000e+00  2.6394110211248393e-06 -2.6033590981069352e-05 0.0000000000000000e+00  2.8453993150902129e-06 -2.6042322573434607e-05 0.0000000000000000e+00  3.0408651765601931e-06 -2.6063729353917662e-05 0.0000000000000000e+00  3.2245413248694219e-06 -2.6099580934628614e-05 0.0000000000000000e+00  3.3952394616928319e-06 -2.6151922631762749e-05 0.0000000000000000e+00  3.5518913513181171e-06 -2.6223076775633065e-05 0.0000000000000000e+00  3.6935979572609016e-06 -2.6315632321357050e-05 0.0000000000000000e+00  3.8196859598967881e-06 -2.6432418970326772e-05 0.0000000000000000e+00  3.9297702950723658e-06 -2.6576461596472547e-05 0.0000000000000000e+00  4.0238205731293050e-06 -2.6750910257219460e-05 0.0000000000000000e+00  4.1022283938706951e-06 -2.6958940274547379e-05 0.0000000000000000e+00  4.1658716929591306e-06 -2.7203615474976289e-05 0.0000000000000000e+00  4.2161713481580354e-06 -2.7487705137098667e-05 0.0000000000000000e+00  4.2551343430760889e-06 -2.7813440563984372e-05 0.0000000000000000e+00  4.2853769017768118e-06 -2.8182188688714829e-05 0.0000000000000000e+00  4.3101204445838425e-06 -2.8594004234514077e-05 0.0000000000000000e+00  4.3331535948311531e-06 -2.9046991940399827e-05 0.0000000000000000e+00  4.3587559201830208e-06 -2.9536353528060287e-05 0.0000000000000000e+00  4.3915845525532721e-06 -3.0052888575517785e-05 0.0000000000000000e+00  -4.2678740734754215e-06 -3.2508274241449212e-05 0.0000000000000000e+00  -4.1629046510417998e-06 -3.1871900068867806e-05 0.0000000000000000e+00  -4.0560887270198437e-06 -3.1276521768729530e-05 0.0000000000000000e+00  -3.9438542382347076e-06 -3.0726874989666249e-05 0.0000000000000000e+00  -3.8238609336616687e-06 -3.0225018695293763e-05 0.0000000000000000e+00  -3.6945145593745020e-06 -2.9770909697222490e-05 0.0000000000000000e+00  -3.5547373936754339e-06 -2.9362960154584994e-05 0.0000000000000000e+00  -3.4038489309856568e-06 -2.8998519169353161e-05 0.0000000000000000e+00  -3.2414929936722741e-06 -2.8674268041672628e-05 0.0000000000000000e+00  -3.0675840948941417e-06 -2.8386533554933893e-05 0.0000000000000000e+00  -2.8822621489297049e-06 -2.8131528077668893e-05 0.0000000000000000e+00  -2.6858517241755101e-06 -2.7905526514380232e-05 0.0000000000000000e+00  -2.4788249377992510e-06 -2.7704990280144268e-05 0.0000000000000000e+00  -2.2617681025792424e-06 -2.7526648077619565e-05 0.0000000000000000e+00  -2.0353524369261415e-06 -2.7367542509284496e-05 0.0000000000000000e+00  -1.8003090429647474e-06 -2.7225050583204063e-05 0.0000000000000000e+00  -1.5574081717245382e-06 -2.7096885077038558e-05 0.0000000000000000e+00  -1.3074426221540128e-06 -2.6981082608114561e-05 0.0000000000000000e+00  -1.0512149922951827e-06 -2.6875983190761464e-05 0.0000000000000000e+00  -7.8952841931806393e-07 -2.6780205094495655e-05 0.0000000000000000e+00  -5.2318040237546502e-07 -2.6692617974190447e-05 0.0000000000000000e+00  -2.5295928781835523e-07 -2.6612316534453283e-05 0.0000000000000000e+00  2.0356999768307473e-08 -2.6538596410708759e-05 0.0000000000000000e+00  2.9600038325086259e-07 -2.6470933486424338e-05 0.0000000000000000e+00  5.7321060022712171e-07 -2.6408967502245320e-05 0.0000000000000000e+00  8.5123208024892203e-07 -2.6352490528927049e-05 0.0000000000000000e+00  1.1293100885042871e-06 -2.6301440651450768e-05 0.0000000000000000e+00  1.4066864879365330e-06 -2.6255901026221572e-05 0.0000000000000000e+00  1.6825954763556324e-06 -2.6216104306882590e-05 0.0000000000000000e+00  1.9562596699070587e-06 -2.6182442267829934e-05 0.0000000000000000e+00  2.2268869295983929e-06 -2.6155480269642797e-05 0.0000000000000000e+00  2.4936683626202468e-06 -2.6135975990250010e-05 0.0000000000000000e+00  2.7557779724877987e-06 -2.6124901574589442e-05 0.0000000000000000e+00  3.0123744767824521e-06 -2.6123468021848020e-05 0.0000000000000000e+00  3.2626058504883506e-06 -2.6133150226312928e-05 0.0000000000000000e+00  3.5056171745441875e-06 -2.6155710616412047e-05 0.0000000000000000e+00  3.7405623567741907e-06 -2.6193218808534674e-05 0.0000000000000000e+00  3.9666202257032028e-06 -2.6248064133252945e-05 0.0000000000000000e+00  4.1830153564106736e-06 -2.6322957341921167e-05 0.0000000000000000e+00  4.3890437580673912e-06 -2.6420917313140691e-05 0.0000000000000000e+00  4.5841032419761081e-06 -2.6545238203625862e-05 0.0000000000000000e+00  4.7677279440285245e-06 -2.6699432257813978e-05 0.0000000000000000e+00  4.9396262089787367e-06 -2.6887143383686409e-05 0.0000000000000000e+00  5.0997210569034189e-06 -2.7112026514569932e-05 0.0000000000000000e+00  5.2481930482016787e-06 -2.7377587519838677e-05 0.0000000000000000e+00  5.3855269608977600e-06 -2.7686977788049755e-05 0.0000000000000000e+00  5.5125669068394685e-06 -2.8042736444692430e-05 0.0000000000000000e+00  5.6305904861962299e-06 -2.8446471375872524e-05 0.0000000000000000e+00  5.7414238000070021e-06 -2.8898467265809514e-05 0.0000000000000000e+00  5.8476406319859441e-06 -2.9397203090428115e-05 0.0000000000000000e+00  5.9529320115193646e-06 -2.9938746256282271e-05 0.0000000000000000e+00  -6.3511063463320539e-06 -3.2051992974449961e-05 0.0000000000000000e+00  -6.1512235645330692e-06 -3.1370296453411718e-05 0.0000000000000000e+00  -5.9520401244822220e-06 -3.0758397987389802e-05 0.0000000000000000e+00  -5.7482024695160657e-06 -3.0210314195806166e-05 0.0000000000000000e+00  -5.5363134488485334e-06 -2.9721281401724875e-05 0.0000000000000000e+00  -5.3143833354369179e-06 -2.9286724126660710e-05 0.0000000000000000e+00  -5.0814371595601674e-06 -2.8901948806911795e-05 0.0000000000000000e+00  -4.8372250706268837e-06 -2.8562146281142701e-05 0.0000000000000000e+00  -4.5820029125288102e-06 -2.8262506286576382e-05 0.0000000000000000e+00  -4.3163638204936613e-06 -2.7998352753982185e-05 0.0000000000000000e+00  -4.0411092618323265e-06 -2.7765260744925311e-05 0.0000000000000000e+00  -3.7571517929882675e-06 -2.7559141609563185e-05 0.0000000000000000e+00  -3.4654436737667578e-06 -2.7376295260713933e-05 0.0000000000000000e+00  -3.1669264523609859e-06 -2.7213433831249233e-05 0.0000000000000000e+00  -2.8624972733602074e-06 -2.7067682794460220e-05 0.0000000000000000e+00  -2.5529882101019215e-06 -2.6936565695472647e-05 0.0000000000000000e+00  -2.2391554619626824e-06 -2.6817977939273043e-05 0.0000000000000000e+00  -1.9216757923837585e-06 -2.6710154118063706e-05 0.0000000000000000e+00  -1.6011480958945647e-06 -2.6611632391923417e-05 0.0000000000000000e+00  -1.2780984515045645e-06 -2.6521218576302324e-05 0.0000000000000000e+00  -9.5298743141358296e-07 -2.6437951877370712e-05 0.0000000000000000e+00  -6.2621878172572023e-07 -2.6361073653751017e-05 0.0000000000000000e+00  -2.9814887581419475e-07 -2.6290000155545357e-05 0.0000000000000000e+00  3.0903434628826720e-08 -2.6224299877243634e-05 0.0000000000000000e+00  3.6064677481091879e-07 -2.6163675937395110e-05 0.0000000000000000e+00  6.9080708810614308e-07 -2.6107953743449572e-05 0.0000000000000000e+00  1.0211173601226077e-06 -2.6057074095508166e-05 0.0000000000000000e+00  1.3513071763563136e-06 -2.6011091810304966e-05 0.0000000000000000e+00  1.6810920532569711e-06 -2.5970179890301894e-05 0.0000000000000000e+00  2.0101625067311343e-06 -2.5934639206587735e-05 0.0000000000000000e+00  2.3381728837446583e-06 -2.5904913592307662e-05 0.0000000000000000e+00  2.6647300857999386e-06 -2.5881610138529962e-05 0.0000000000000000e+00  2.9893824627003034e-06 -2.5865524328055658e-05 0.0000000000000000e+00  3.3116093559102550e-06 -2.5857669414214314e-05 0.0000000000000000e+00  3.6308120253039213e-06 -2.5859309129728201e-05 0.0000000000000000e+00  3.9463069979734430e-06 -2.5871992375339585e-05 0.0000000000000000e+00  4.2573232201098354e-06 -2.5897587975882161e-05 0.0000000000000000e+00  4.5630047450017296e-06 -2.5938316905757873e-05 0.0000000000000000e+00  4.8624210044617437e-06 -2.5996778610264373e-05 0.0000000000000000e+00  5.1545869183878106e-06 -2.6075967269363527e-05 0.0000000000000000e+00  5.4384951131772985e-06 -2.6179273226288726e-05 0.0000000000000000e+00  5.7131622671891766e-06 -2.6310464584817706e-05 0.0000000000000000e+00  5.9776910599559167e-06 -2.6473644494165778e-05 0.0000000000000000e+00  6.2313484868268082e-06 -2.6673181232580769e-05 0.0000000000000000e+00  6.4736607471807471e-06 -2.6913611119333945e-05 0.0000000000000000e+00  6.7045250724137784e-06 -2.7199518652976830e-05 0.0000000000000000e+00  6.9243402210965406e-06 -2.7535404509697124e-05 0.0000000000000000e+00  7.1341597081198316e-06 -2.7925562312246169e-05 0.0000000000000000e+00  7.3358737844723413e-06 -2.8374005616147534e-05 0.0000000000000000e+00  7.5324268748887213e-06 -2.8884528172397498e-05 0.0000000000000000e+00  7.7280715874856253e-06 -2.9461071556335938e-05 0.0000000000000000e+00  -8.5783616447558017e-06 -3.1127256917902692e-05 0.0000000000000000e+00  -8.2904395487008801e-06 -3.0424963763269229e-05 0.0000000000000000e+00  -7.9990297989458367e-06 -2.9812149105358677e-05 0.0000000000000000e+00  -7.7002104789689884e-06 -2.9279295907464895e-05 0.0000000000000000e+00  -7.3912446510448918e-06 -2.8816861812607507e-05 0.0000000000000000e+00  -7.0706469631661742e-06 -2.8415750191355290e-05 0.0000000000000000e+00  -6.7380105656635502e-06 -2.8067514752871720e-05 0.0000000000000000e+00  -6.3937536747051371e-06 -2.7764476193579540e-05 0.0000000000000000e+00  -6.0388620665460086e-06 -2.7499786747684147e-05 0.0000000000000000e+00  -5.6746623372403932e-06 -2.7267449484507013e-05 0.0000000000000000e+00  -5.3026389841225595e-06 -2.7062298689990580e-05 0.0000000000000000e+00  -4.9242968377402304e-06 -2.6879950639024325e-05 0.0000000000000000e+00  -4.5410645930268410e-06 -2.6716735022650925e-05 0.0000000000000000e+00  -4.1542327324415597e-06 -2.6569616263844015e-05 0.0000000000000000e+00  -3.7649185742268604e-06 -2.6436111960774150e-05 0.0000000000000000e+00  -3.3740516388368111e-06 -2.6314213546937182e-05 0.0000000000000000e+00  -2.9823734667322059e-06 -2.6202312383698316e-05 0.0000000000000000e+00  -2.5904471195839849e-06 -2.6099133055282943e-05 0.0000000000000000e+00  -2.1986726740375062e-06 -2.6003674617308036e-05 0.0000000000000000e+00  -1.8073059816825138e-06 -2.5915159889007926e-05 0.0000000000000000e+00  -1.4164787845342066e-06 -2.5832992490779109e-05 0.0000000000000000e+00  -1.0262189374369379e-06 -2.5756721133818220e-05 0.0000000000000000e+00  -6.3647000915126115e-07 -2.5686010604296332e-05 0.0000000000000000e+00  -2.4710993145327900e-07 -2.5620618904159657e-05 0.0000000000000000e+00  1.4203133908381687e-07 -2.5560380082114581e-05 0.0000000000000000e+00  5.3115496991371436e-07 -2.5505192390647464e-05 0.0000000000000000e+00  9.2047689092615328e-07 -2.5455011525059589e-05 0.0000000000000000e+00  1.3102115135383776e-06 -2.5409848830748010e-05 0.0000000000000000e+00  1.7005550835060891e-06 -2.5369774500589551e-05 0.0000000000000000e+00  2.0916682306074590e-06 -2.5334925921491743e-05 0.0000000000000000e+00  2.4836573401303748e-06 -2.5305521463148614e-05 0.0000000000000000e+00  2.8765544932634083e-06 -2.5281880124797479e-05 0.0000000000000000e+00  3.2702959200060794e-06 -2.5264447553598786e-05 0.0000000000000000e+00  3.6646991978184805e-06 -2.5253828998593937e-05 0.0000000000000000e+00  4.0594398341902054e-06 -2.5250829732049175e-05 0.0000000000000000e+00  4.4540284145061132e-06 -2.5256503304445894e-05 0.0000000000000000e+00  4.8477901957620583e-06 -2.5272207631592286e-05 0.0000000000000000e+00  5.2398498840294635e-06 -2.5299668258207332e-05 0.0000000000000000e+00  5.6291253184057667e-06 -2.5341047115551061e-05 0.0000000000000000e+00  6.0143348065924390e-06 -2.5399013635564786e-05 0.0000000000000000e+00  6.3940237326157085e-06 -2.5476813240877270e-05 0.0000000000000000e+00  6.7666164689146276e-06 -2.5578326244388599e-05 0.0000000000000000e+00  7.1304991093431015e-06 -2.5708108660152428e-05 0.0000000000000000e+00  7.4841365503577137e-06 -2.5871406411871496e-05 0.0000000000000000e+00  7.8262236031605838e-06 -2.6074137347018603e-05 0.0000000000000000e+00  8.1558644423036940e-06 -2.6322842390496327e-05 0.0000000000000000e+00  8.4727695285423637e-06 -2.6624617170209298e-05 0.0000000000000000e+00  8.7774571880596450e-06 -2.6987043960843179e-05 0.0000000000000000e+00  9.0714484825079076e-06 -2.7418146230983693e-05 0.0000000000000000e+00  9.3574369686007503e-06 -2.7926395199462524e-05 0.0000000000000000e+00  9.6394047622189120e-06 -2.8520791754192327e-05 0.0000000000000000e+00  -1.0858379543770504e-05 -2.9640154639573313e-05 0.0000000000000000e+00  -1.0485354136469400e-05 -2.8953942930434619e-05 0.0000000000000000e+00  -1.0101764753358751e-05 -2.8376031930919664e-05 0.0000000000000000e+00  -9.7043583615320000e-06 -2.7891346937326244e-05 0.0000000000000000e+00  -9.2917168337187497e-06 -2.7484898530910629e-05 0.0000000000000000e+00  -8.8639385634261594e-06 -2.7142652749765337e-05 0.0000000000000000e+00  -8.4222538238850687e-06 -2.6852134443076348e-05 0.0000000000000000e+00  -7.9686321032281504e-06 -2.6602710820769606e-05 0.0000000000000000e+00  -7.5054334554110542e-06 -2.6385625609552009e-05 0.0000000000000000e+00  -7.0351302308798601e-06 -2.6193873583850825e-05 0.0000000000000000e+00  -6.5601045344133748e-06 -2.6021990733407931e-05 0.0000000000000000e+00  -6.0825144079556447e-06 -2.5865813375599079e-05 0.0000000000000000e+00  -5.6042163070267701e-06 -2.5722239704509465e-05 0.0000000000000000e+00  -5.1267303332315350e-06 -2.5589012287474462e-05 0.0000000000000000e+00  -4.6512358463556262e-06 -2.5464529831525728e-05 0.0000000000000000e+00  -4.1785871799823891e-06 -2.5347690193460994e-05 0.0000000000000000e+00  -3.7093414723239798e-06 -2.5237763013341223e-05 0.0000000000000000e+00  -3.2437927262147595e-06 -2.5134288587483971e-05 0.0000000000000000e+00  -2.7820079805666845e-06 -2.5036998969696327e-05 0.0000000000000000e+00  -2.3238628825350692e-06 -2.4945757317392698e-05 0.0000000000000000e+00  -1.8690750256807631e-06 -2.4860511868181781e-05 0.0000000000000000e+00  -1.4172342175418318e-06 -2.4781261448661713e-05 0.0000000000000000e+00  -9.6782941719731056e-07 -2.4708029968650979e-05 0.0000000000000000e+00  -5.2027249176256351e-07 -2.4640847882400874e-05 0.0000000000000000e+00  -7.3919224211286367e-08 -2.4579739078440531e-05 0.0000000000000000e+00  3.7191180159410909e-07 -2.4524712086772497e-05 0.0000000000000000e+00  8.1792168287283709e-07 -2.4475754873079896e-05 0.0000000000000000e+00  1.2648142061355738e-06 -2.4432832837833494e-05 0.0000000000000000e+00  1.7132784892604715e-06 -2.4395889970409985e-05 0.0000000000000000e+00  2.1639703419305739e-06 -2.4364853442520426e-05 0.0000000000000000e+00  2.6174914362339482e-06 -2.4339642279028440e-05 0.0000000000000000e+00  3.0743654264880277e-06 -2.4320181133060524e-05 0.0000000000000000e+00  3.5350102630365475e-06 -2.4306420626692555e-05 0.0000000000000000e+00  3.9997061384139569e-06 -2.4298366199475539e-05 0.0000000000000000e+00  4.4685588292008810e-06 -2.4296117918782356e-05 0.0000000000000000e+00  4.9414587131896614e-06 -2.4299924204009772e-05 0.0000000000000000e+00  5.4180365282013516e-06 -2.4310252810754017e-05 0.0000000000000000e+00  5.8976180932160624e-06 -2.4327882551052804e-05 0.0000000000000000e+00  6.3791818409770475e-06 -2.4354018832504069e-05 0.0000000000000000e+00  6.8613252041447226e-06 -2.4390434797776059e-05 0.0000000000000000e+00  7.3422486691058605e-06 -2.4439637124935828e-05 0.0000000000000000e+00  7.8197694828221117e-06 -2.4505050845986465e-05 0.0000000000000000e+00  8.2913799809803091e-06 -2.4591210503312761e-05 0.0000000000000000e+00  8.7543669763920975e-06 -2.4703936060642186e-05 0.0000000000000000e+00  9.2060061765462854e-06 -2.4850463636405724e-05 0.0000000000000000e+00  9.6438356522657998e-06 -2.5039499125201129e-05 0.0000000000000000e+00  1.0065991930533474e-05 -2.5281176181822736e-05 0.0000000000000000e+00  1.0471564775958987e-05 -2.5586933649106231e-05 0.0000000000000000e+00  1.0860914439717008e-05 -2.5969356545104952e-05 0.0000000000000000e+00  1.1235938115256152e-05 -2.6441971318734110e-05 0.0000000000000000e+00  1.1600252231863653e-05 -2.7018996146074531e-05 0.0000000000000000e+00  -1.3064317777948851e-05 -2.7493734587128582e-05 0.0000000000000000e+00  -1.2607040150158619e-05 -2.6879856347963276e-05 0.0000000000000000e+00  -1.2127655109285484e-05 -2.6393983622425162e-05 0.0000000000000000e+00  -1.1624380322721293e-05 -2.6010817520820283e-05 0.0000000000000000e+00  -1.1098456066757203e-05 -2.5706489945917002e-05 0.0000000000000000e+00  -1.0553103615265989e-05 -2.5460294675615828e-05 0.0000000000000000e+00  -9.9925823727430747e-06 -2.5255395000918328e-05 0.0000000000000000e+00  -9.4214675489917053e-06 -2.5078815223818914e-05 0.0000000000000000e+00  -8.8441588917869267e-06 -2.4921028241545903e-05 0.0000000000000000e+00  -8.2645847037659504e-06 -2.4775373057712965e-05 0.0000000000000000e+00  -7.6860527815767766e-06 -2.4637448355244263e-05 0.0000000000000000e+00  -7.1112028577450327e-06 -2.4504559776353310e-05 0.0000000000000000e+00  -6.5420237415379106e-06 -2.4375253500321364e-05 0.0000000000000000e+00  -5.9799078158520247e-06 -2.4248942505064505e-05 0.0000000000000000e+00  -5.4257238299097595e-06 -2.4125618477765726e-05 0.0000000000000000e+00  -4.8798954372799621e-06 -2.4005636712435832e-05 0.0000000000000000e+00  -4.3424777166785577e-06 -2.3889560045157806e-05 0.0000000000000000e+00  -3.8132272689948097e-06 -2.3778048766188490e-05 0.0000000000000000e+00  -3.2916637429686154e-06 -2.3671785250862033e-05 0.0000000000000000e+00  -2.7771221039278190e-06 -2.3571424083971352e-05 0.0000000000000000e+00  -2.2687958656429221e-06 -2.3477560376062775e-05 0.0000000000000000e+00  -1.7657720361465099e-06 -2.3390710642126035e-05 0.0000000000000000e+00  -1.2670588158404124e-06 -2.3311301996190131e-05 0.0000000000000000e+00  -7.71607223151