<?xml version="1.0"?>
<VTKFile type="UnstructuredGrid"  version="0.1"  >
<UnstructuredGrid>
<Piece  NumberOfPoints="561" NumberOfCells="1000">
<Points>
<DataArray  type="Float64"  NumberOfComponents="3"  format="ascii">0 0 0  0.0004 0 0  0.0008 0 0  0.0012 0 0  0.0016 0 0  0.002 0 0  0.0024 0 0  0.0028 0 0  0.0032 0 0  0.0036 0 0  0.004 0 0  0.0044 0 0  0.0048 0 0  0.0052 0 0  0.005600000000000001 0 0  0.006 0 0  0.0064 0 0  0.0068 0 0  0.0072 0 0  0.0076 0 0  0.008 0 0  0.008399999999999999 0 0  0.008800000000000001 0 0  0.0092 0 0  0.009599999999999999 0 0  0.01 0 0  0.0104 0 0  0.0108 0 0  0.0112 0 0  0.0116 0 0  0.012 0 0  0.0124 0 0  0.0128 0 0  0.0132 0 0  0.0136 0 0  0.014 0 0  0.0144 0 0  0.0148 0 0  0.0152 0 0  0.0156 0 0  0.016 0 0  0.0164 0 0  0.0168 0 0  0.0172 0 0  0.0176 0 0  0.018 0 0  0.0184 0 0  0.0188 0 0  0.0192 0 0  0.0196 0 0  0.02 0 0  0 0.0012 0  0.0004 0.0012 0  0.0008 0.0012 0  0.0012 0.0012 0  0.0016 0.0012 0  0.002 0.0012 0  0.0024 0.0012 0  0.0028 0.0012 0  0.0032 0.0012 0  0.0036 0.0012 0  0.004 0.0012 0  0.0044 0.0012 0  0.0048 0.0012 0  0.0052 0.0012 0  0.005600000000000001 0.0012 0  0.006 0.0012 0  0.0064 0.0012 0  0.0068 0.0012 0  0.0072 0.0012 0  0.0076 0.0012 0  0.008 0.0012 0  0.008399999999999999 0.0012 0  0.008800000000000001 0.0012 0  0.0092 0.0012 0  0.009599999999999999 0.0012 0  0.01 0.0012 0  0.0104 0.0012 0  0.0108 0.0012 0  0.0112 0.0012 0  0.0116 0.0012 0  0.012 0.0012 0  0.0124 0.0012 0  0.0128 0.0012 0  0.0132 0.0012 0  0.0136 0.0012 0  0.014 0.0012 0  0.0144 0.0012 0  0.0148 0.0012 0  0.0152 0.0012 0  0.0156 0.0012 0  0.016 0.0012 0  0.0164 0.0012 0  0.0168 0.0012 0  0.0172 0.0012 0  0.0176 0.0012 0  0.018 0.0012 0  0.0184 0.0012 0  0.0188 0.0012 0  0.0192 0.0012 0  0.0196 0.0012 0  0.02 0.0012 0  0 0.0024 0  0.0004 0.0024 0  0.0008 0.0024 0  0.0012 0.0024 0  0.0016 0.0024 0  0.002 0.0024 0  0.0024 0.0024 0  0.0028 0.0024 0  0.0032 0.0024 0  0.0036 0.0024 0  0.004 0.0024 0  0.0044 0.0024 0  0.0048 0.0024 0  0.0052 0.0024 0  0.005600000000000001 0.0024 0  0.006 0.0024 0  0.0064 0.0024 0  0.0068 0.0024 0  0.0072 0.0024 0  0.0076 0.0024 0  0.008 0.0024 0  0.008399999999999999 0.0024 0  0.008800000000000001 0.0024 0  0.0092 0.0024 0  0.009599999999999999 0.0024 0  0.01 0.0024 0  0.0104 0.0024 0  0.0108 0.0024 0  0.0112 0.0024 0  0.0116 0.0024 0  0.012 0.0024 0  0.0124 0.0024 0  0.0128 0.0024 0  0.0132 0.0024 0  0.0136 0.0024 0  0.014 0.0024 0  0.0144 0.0024 0  0.0148 0.0024 0  0.0152 0.0024 0  0.0156 0.0024 0  0.016 0.0024 0  0.0164 0.0024 0  0.0168 0.0024 0  0.0172 0.0024 0  0.0176 0.0024 0  0.018 0.0024 0  0.0184 0.0024 0  0.0188 0.0024 0  0.0192 0.0024 0  0.0196 0.0024 0  0.02 0.0024 0  0 0.0036 0  0.0004 0.0036 0  0.0008 0.0036 0  0.0012 0.0036 0  0.0016 0.0036 0  0.002 0.0036 0  0.0024 0.0036 0  0.0028 0.0036 0  0.0032 0.0036 0  0.0036 0.0036 0  0.004 0.0036 0  0.0044 0.0036 0  0.0048 0.0036 0  0.0052 0.0036 0  0.005600000000000001 0.0036 0  0.006 0.0036 0  0.0064 0.0036 0  0.0068 0.0036 0  0.0072 0.0036 0  0.0076 0.0036 0  0.008 0.0036 0  0.008399999999999999 0.0036 0  0.008800000000000001 0.0036 0  0.0092 0.0036 0  0.009599999999999999 0.0036 0  0.01 0.0036 0  0.0104 0.0036 0  0.0108 0.0036 0  0.0112 0.0036 0  0.0116 0.0036 0  0.012 0.0036 0  0.0124 0.0036 0  0.0128 0.0036 0  0.0132 0.0036 0  0.0136 0.0036 0  0.014 0.0036 0  0.0144 0.0036 0  0.0148 0.0036 0  0.0152 0.0036 0  0.0156 0.0036 0  0.016 0.0036 0  0.0164 0.0036 0  0.0168 0.0036 0  0.0172 0.0036 0  0.0176 0.0036 0  0.018 0.0036 0  0.0184 0.0036 0  0.0188 0.0036 0  0.0192 0.0036 0  0.0196 0.0036 0  0.02 0.0036 0  0 0.0048 0  0.0004 0.0048 0  0.0008 0.0048 0  0.0012 0.0048 0  0.0016 0.0048 0  0.002 0.0048 0  0.0024 0.0048 0  0.0028 0.0048 0  0.0032 0.0048 0  0.0036 0.0048 0  0.004 0.0048 0  0.0044 0.0048 0  0.0048 0.0048 0  0.0052 0.0048 0  0.005600000000000001 0.0048 0  0.006 0.0048 0  0.0064 0.0048 0  0.0068 0.0048 0  0.0072 0.0048 0  0.0076 0.0048 0  0.008 0.0048 0  0.008399999999999999 0.0048 0  0.008800000000000001 0.0048 0  0.0092 0.0048 0  0.009599999999999999 0.0048 0  0.01 0.0048 0  0.0104 0.0048 0  0.0108 0.0048 0  0.0112 0.0048 0  0.0116 0.0048 0  0.012 0.0048 0  0.0124 0.0048 0  0.0128 0.0048 0  0.0132 0.0048 0  0.0136 0.0048 0  0.014 0.0048 0  0.0144 0.0048 0  0.0148 0.0048 0  0.0152 0.0048 0  0.0156 0.0048 0  0.016 0.0048 0  0.0164 0.0048 0  0.0168 0.0048 0  0.0172 0.0048 0  0.0176 0.0048 0  0.018 0.0048 0  0.0184 0.0048 0  0.0188 0.0048 0  0.0192 0.0048 0  0.0196 0.0048 0  0.02 0.0048 0  0 0.006 0  0.0004 0.006 0  0.0008 0.006 0  0.0012 0.006 0  0.0016 0.006 0  0.002 0.006 0  0.0024 0.006 0  0.0028 0.006 0  0.0032 0.006 0  0.0036 0.006 0  0.004 0.006 0  0.0044 0.006 0  0.0048 0.006 0  0.0052 0.006 0  0.005600000000000001 0.006 0  0.006 0.006 0  0.0064 0.006 0  0.0068 0.006 0  0.0072 0.006 0  0.0076 0.006 0  0.008 0.006 0  0.008399999999999999 0.006 0  0.008800000000000001 0.006 0  0.0092 0.006 0  0.009599999999999999 0.006 0  0.01 0.006 0  0.0104 0.006 0  0.0108 0.006 0  0.0112 0.006 0  0.0116 0.006 0  0.012 0.006 0  0.0124 0.006 0  0.0128 0.006 0  0.0132 0.006 0  0.0136 0.006 0  0.014 0.006 0  0.0144 0.006 0  0.0148 0.006 0  0.0152 0.006 0  0.0156 0.006 0  0.016 0.006 0  0.0164 0.006 0  0.0168 0.006 0  0.0172 0.006 0  0.0176 0.006 0  0.018 0.006 0  0.0184 0.006 0  0.0188 0.006 0  0.0192 0.006 0  0.0196 0.006 0  0.02 0.006 0  0 0.007200000000000001 0  0.0004 0.007200000000000001 0  0.0008 0.007200000000000001 0  0.0012 0.007200000000000001 0  0.0016 0.007200000000000001 0  0.002 0.007200000000000001 0  0.0024 0.007200000000000001 0  0.0028 0.007200000000000001 0  0.0032 0.007200000000000001 0  0.0036 0.007200000000000001 0  0.004 0.007200000000000001 0  0.0044 0.007200000000000001 0  0.0048 0.007200000000000001 0  0.0052 0.007200000000000001 0  0.005600000000000001 0.007200000000000001 0  0.006 0.007200000000000001 0  0.0064 0.007200000000000001 0  0.0068 0.007200000000000001 0  0.0072 0.007200000000000001 0  0.0076 0.007200000000000001 0  0.008 0.007200000000000001 0  0.008399999999999999 0.007200000000000001 0  0.008800000000000001 0.007200000000000001 0  0.0092 0.007200000000000001 0  0.009599999999999999 0.007200000000000001 0  0.01 0.007200000000000001 0  0.0104 0.007200000000000001 0  0.0108 0.007200000000000001 0  0.0112 0.007200000000000001 0  0.0116 0.007200000000000001 0  0.012 0.007200000000000001 0  0.0124 0.007200000000000001 0  0.0128 0.007200000000000001 0  0.0132 0.007200000000000001 0  0.0136 0.007200000000000001 0  0.014 0.007200000000000001 0  0.0144 0.007200000000000001 0  0.0148 0.007200000000000001 0  0.0152 0.007200000000000001 0  0.0156 0.007200000000000001 0  0.016 0.007200000000000001 0  0.0164 0.007200000000000001 0  0.0168 0.007200000000000001 0  0.0172 0.007200000000000001 0  0.0176 0.007200000000000001 0  0.018 0.007200000000000001 0  0.0184 0.007200000000000001 0  0.0188 0.007200000000000001 0  0.0192 0.007200000000000001 0  0.0196 0.007200000000000001 0  0.02 0.007200000000000001 0  0 0.008400000000000001 0  0.0004 0.008400000000000001 0  0.0008 0.008400000000000001 0  0.0012 0.008400000000000001 0  0.0016 0.008400000000000001 0  0.002 0.008400000000000001 0  0.0024 0.008400000000000001 0  0.0028 0.008400000000000001 0  0.0032 0.008400000000000001 0  0.0036 0.008400000000000001 0  0.004 0.008400000000000001 0  0.0044 0.008400000000000001 0  0.0048 0.008400000000000001 0  0.0052 0.008400000000000001 0  0.005600000000000001 0.008400000000000001 0  0.006 0.008400000000000001 0  0.0064 0.008400000000000001 0  0.0068 0.008400000000000001 0  0.0072 0.008400000000000001 0  0.0076 0.008400000000000001 0  0.008 0.008400000000000001 0  0.008399999999999999 0.008400000000000001 0  0.008800000000000001 0.008400000000000001 0  0.0092 0.008400000000000001 0  0.009599999999999999 0.008400000000000001 0  0.01 0.008400000000000001 0  0.0104 0.008400000000000001 0  0.0108 0.008400000000000001 0  0.0112 0.008400000000000001 0  0.0116 0.008400000000000001 0  0.012 0.008400000000000001 0  0.0124 0.008400000000000001 0  0.0128 0.008400000000000001 0  0.0132 0.008400000000000001 0  0.0136 0.008400000000000001 0  0.014 0.008400000000000001 0  0.0144 0.008400000000000001 0  0.0148 0.008400000000000001 0  0.0152 0.008400000000000001 0  0.0156 0.008400000000000001 0  0.016 0.008400000000000001 0  0.0164 0.008400000000000001 0  0.0168 0.008400000000000001 0  0.0172 0.008400000000000001 0  0.0176 0.008400000000000001 0  0.018 0.008400000000000001 0  0.0184 0.008400000000000001 0  0.0188 0.008400000000000001 0  0.0192 0.008400000000000001 0  0.0196 0.008400000000000001 0  0.02 0.008400000000000001 0  0 0.009600000000000001 0  0.0004 0.009600000000000001 0  0.0008 0.009600000000000001 0  0.0012 0.009600000000000001 0  0.0016 0.009600000000000001 0  0.002 0.009600000000000001 0  0.0024 0.009600000000000001 0  0.0028 0.009600000000000001 0  0.0032 0.009600000000000001 0  0.0036 0.009600000000000001 0  0.004 0.009600000000000001 0  0.0044 0.009600000000000001 0  0.0048 0.009600000000000001 0  0.0052 0.009600000000000001 0  0.005600000000000001 0.009600000000000001 0  0.006 0.009600000000000001 0  0.0064 0.009600000000000001 0  0.0068 0.009600000000000001 0  0.0072 0.009600000000000001 0  0.0076 0.009600000000000001 0  0.008 0.009600000000000001 0  0.008399999999999999 0.009600000000000001 0  0.008800000000000001 0.009600000000000001 0  0.0092 0.009600000000000001 0  0.009599999999999999 0.009600000000000001 0  0.01 0.009600000000000001 0  0.0104 0.009600000000000001 0  0.0108 0.009600000000000001 0  0.0112 0.009600000000000001 0  0.0116 0.009600000000000001 0  0.012 0.009600000000000001 0  0.0124 0.009600000000000001 0  0.0128 0.009600000000000001 0  0.0132 0.009600000000000001 0  0.0136 0.009600000000000001 0  0.014 0.009600000000000001 0  0.0144 0.009600000000000001 0  0.0148 0.009600000000000001 0  0.0152 0.009600000000000001 0  0.0156 0.009600000000000001 0  0.016 0.009600000000000001 0  0.0164 0.009600000000000001 0  0.0168 0.009600000000000001 0  0.0172 0.009600000000000001 0  0.017
[...]
<PointData  Scalars="VMS [Pa]"> 
<DataArray  type="Float64"  Name="VMS [Pa]"  format="ascii">2.1362770152710978e+07  1.5380705652389135e+07  1.6380554532210782e+07  1.5523438085633660e+07  1.4758484993561676e+07  1.6029177698129136e+07  2.0043571142319102e+07  2.5843247236742042e+07  3.2632097849359639e+07  3.9981093436754622e+07  4.7597787759195015e+07  5.5259435022391565e+07  6.2787481464416161e+07  7.0038058203320518e+07  7.6898167567228004e+07  8.3282321334442243e+07  8.9128407826447830e+07  9.4393694497839749e+07  9.9051258137389466e+07  1.0308624968112312e+08  1.0649210148382390e+08  1.0926719551760343e+08  1.1141238424945891e+08  1.1292959895078322e+08  1.1382119597776081e+08  1.1408918640186755e+08  1.1373400064110957e+08  1.1275342889134662e+08  1.1114248177006443e+08  1.0889448191228905e+08  1.0600304147302452e+08  1.0246406655411462e+08  9.8278919656266466e+07  9.3460019466050416e+07  8.8035986827772439e+07  8.2054595094822243e+07  7.5586644719834104e+07  6.8731040259382918e+07  6.1616745887255631e+07  5.4402084284633592e+07  4.7275033501859546e+07  4.0451601824240468e+07  3.4170029902028576e+07  2.8671204521557424e+07  2.4173582972676788e+07  2.0747679617277037e+07  1.8396301068367202e+07  1.6752511642534005e+07  1.5344882003163923e+07  1.7345537665347889e+07  6.2443579455219011e+05  2.4456905188307405e+07  2.2791530893186390e+07  2.5659127085847087e+07  2.7924728876283728e+07  3.2099246992550626e+07  3.6895218811496384e+07  4.2210626904465534e+07  4.7502591701360084e+07  5.2537494073217385e+07  5.7259330634813480e+07  6.1635012483782135e+07  6.5662409544574402e+07  6.9357980874587268e+07  7.2745998127879530e+07  7.5849153962140486e+07  7.8683445206230715e+07  8.1257945435706154e+07  8.3576736671701118e+07  8.5640100138098374e+07  8.7445635904020190e+07  8.8990031005913526e+07  9.0270700457580566e+07  9.1286630938847795e+07  9.2037898888080969e+07  9.2523960096027195e+07  9.2742195787151650e+07  9.2688304190651044e+07  9.2358213608064964e+07  9.1749799243851215e+07  9.0863466528589770e+07  8.9701439461881742e+07  8.8267234685689434e+07  8.6566003187199220e+07  8.4601388913315102e+07  8.2370172227474347e+07  7.9862135212256178e+07  7.7062536767742783e+07  7.3950805120816633e+07  7.0501140743450999e+07  6.6691357335681699e+07  6.2511731522611678e+07  5.7970673805104099e+07  5.3104270455028549e+07  4.7985190152885459e+07  4.2738917902137958e+07  3.7553993068664990e+07  3.2826337501322255e+07  2.8837074404832851e+07  2.6773428168722779e+07  2.4760312896249853e+07  2.5016711806323823e+07  2.1887264337983102e+07  3.1748080302788351e+07  3.7857301169249117e+07  4.5110585616396323e+07  5.1604417372248203e+07  5.7293729329643339e+07  6.2340255510628223e+07  6.6607003073478535e+07  7.0055002712065920e+07  7.2626879315286353e+07  7.4327649826398924e+07  7.5229570656778976e+07  7.5441612911407143e+07  7.5090814453780010e+07  7.4311775728567138e+07  7.3240798923370153e+07  7.2007807139363170e+07  7.0724747321195960e+07  6.9480712275388956e+07  6.8343940706412211e+07  6.7363299797812447e+07  6.6569045841967382e+07  6.5974637271847501e+07  6.5580955556488566e+07  6.5384205976140045e+07  6.5384810961544648e+07  6.5590848798439853e+07  6.6013311826595679e+07  6.6657953354132041e+07  6.7519294378868565e+07  6.8577733702060029e+07  6.9799326755428642e+07  7.1130623097261056e+07  7.2495104383774638e+07  7.3807295693511099e+07  7.4980862732031241e+07  7.5917882141128555e+07  7.6508136669030070e+07  7.6644723612747163e+07  7.6223066252570912e+07  7.5127747798995674e+07  7.3246693674273446e+07  7.0491559020518959e+07  6.6809031690226153e+07  6.2208312125722207e+07  5.6738969595729619e+07  5.0516640950350404e+07  4.3310672844842575e+07  3.6047882688249722e+07  2.7275828267868754e+07  3.0851182827142693e+07  3.7496301863241129e+07  5.0320352006660752e+07  6.0548352146064147e+07  6.9270186501478553e+07  7.5721605347091720e+07  8.0606560202443972e+07  8.4020108029893562e+07  8.6061647754929021e+07  8.6824111849465176e+07  8.6432543257985204e+07  8.5077353664234281e+07  8.2940614129362717e+07  8.0192385751778781e+07  7.7003837931374848e+07  7.3534508797779471e+07  6.9914818465386212e+07  6.6234787941890590e+07  6.2566103195433453e+07  5.8989845931216583e+07  5.5595315544540994e+07  5.2475769250324987e+07  4.9732010688465208e+07  4.7474723894755967e+07  4.5820599757151976e+07  4.4874977743203342e+07  4.4701536042904362e+07  4.5298369226078272e+07  4.6602714814592645e+07  4.8519181157399282e+07  5.0946964253464639e+07  5.3793403393633291e+07  5.6976232054820396e+07  6.0420165921843484e+07  6.4080595061335281e+07  6.7919655588567510e+07  7.1836300042933926e+07  7.5682903576791912e+07  7.9307442970515698e+07  8.2529647008503184e+07  8.5114471619334295e+07  8.6857701320123091e+07  8.7638225545574114e+07  8.7368953927037507e+07  8.6000702028417617e+07  8.3486059710072935e+07  7.9685533990429088e+07  7.4467938904337376e+07  6.7585717700445652e+07  5.9912470945802741e+07  4.8485567376019336e+07  5.0276273990064636e+07  7.9105656823355600e+07  8.6824947169316098e+07  8.9721242681748375e+07  9.4038469896745712e+07  9.6887567959050253e+07  9.8199786961077243e+07  9.7963174459122524e+07  9.6418748792506054e+07  9.3871105825042874e+07  9.0597470472190902e+07  8.6645690192198679e+07  8.2018112342588127e+07  7.6809792762517437e+07  7.1112895081469715e+07  6.5016582538708188e+07  5.8642651150033206e+07  5.2200034860560976e+07  4.5974528418411553e+07  4.0198631701947279e+07  3.5018890481650367e+07  3.0539461132865474e+07  2.6835239313475899e+07  2.3958663511832226e+07  2.1944522288199537e+07  2.0814100169620577e+07  2.0578625321130376e+07  2.1241214488162421e+07  2.2797972595480788e+07  2.5237944695383471e+07  2.8538752734637644e+07  3.2659108665878288e+07  3.7529952295769095e+07  4.3048822563346416e+07  4.9053829050708503e+07  5.5202533031920210e+07  6.1235035810226865e+07  6.7088123734844856e+07  7.2697986312041655e+07  7.7966156279534787e+07  8.2929374241363719e+07  8.7718467076129764e+07  9.2143120714171410e+07  9.5843313835806221e+07  9.8436248485625729e+07  9.9481912106106400e+07  9.8831505166044459e+07  9.6770471242647335e+07  9.3491167194038957e+07  8.9714912114592209e+07  8.4374758122420266e+07  9.2309793317179218e+07  1.3777395403595400e+08  1.3210843970006308e+08  1.2381273786078486e+08  1.1864351838882059e+08  1.1388806001067941e+08  1.0946334635881680e+08  1.0446905060401291e+08  9.8424117550305054e+07  9.1141147659630895e+07  8.2323756890798256e+07  7.2401387921355873e+07  6.2490784711415641e+07  5.3300128763258219e+07  4.5311091097853459e+07  3.8983569224202022e+07  3.4592345016223967e+07  3.2146650719194967e+07  3.1149845484466519e+07  3.0974651338525634e+07  3.1273287397277802e+07  3.1835708249522056e+07  3.2508417696232721e+07  3.3164549374500684e+07  3.3694326079416312e+07  3.4007846740244903e+07  3.4044042921767779e+07  3.3780420825124457e+07  3.3238310753050674e+07  3.2480324016124275e+07  3.1602491720707934e+07  3.0727516142609213e+07  3.0005246122822005e+07  2.9629075088158127e+07  2.9863082009314209e+07  3.1259300915000938e+07  3.4914912189813711e+07  4.0721362126443006e+07  4.8401840849295557e+07  5.7506012551284373e+07  6.7624827178122208e+07  7.7293089908108398e+07  8.5552245295768052e+07  9.2690124306209221e+07  9.8948623302652076e+07  1.0499140689711794e+08  1.1136691660478242e+08  1.1728719449935533e+08  1.2175905506614347e+08  1.2609570542342706e+08  1.3204167643604977e+08  1.4897339025252533e+08  2.0635972371479449e+08  1.8815044904477578e+08  1.6294269783951017e+08  1.4338624553250051e+08  1.2382928702627930e+08  1.0352469941304976e+08  8.3189420506876066e+07  6.4936512576915972e+07  4.9853640315402143e+07  3.9456892256087348e+07  3.5475573302315138e+07  3.5290625295680128e+07  3.6777621305244401e+07  3.9526475194069922e+07  4.3288683479330003e+07  4.7835759439687036e+07  5.2854841803506806e+07  5.7993545235263549e+07  6.2956950120124146e+07  6.7521360432429656e+07  7.1529119977854997e+07  7.4884032768554896e+07  7.7531622836842269e+07  7.9444898775057971e+07  8.0613565952804208e+07  8.1035447385457411e+07  8.0710063171438023e+07  7.9635004378195614e+07  7.7806096183935001e+07  7.5221679328707904e+07  7.1890354987739637e+07  6.7842048170346409e+07  6.3142501484735027e+07  5.7918372394695029e+07  5.2394295769440092e+07  4.6865475168708444e+07  4.1747833052336447e+07  3.7464058076932609e+07  3.4283576656142481e+07  3.2481910046521269e+07  3.2546173382089991e+07  4.0455775960720465e+07  5.4011458569448583e+07  7.2051815011081263e+07  9.1514349516914651e+07  1.0939645505400290e+08  1.2470766837476724e+08  1.4345242257281363e+08  1.6776905729384395e+08  1.9561917694552296e+08  2.2635366754977703e+08  3.4592277690500587e+08  2.6315773445119745e+08  1.9810230391332430e+08  1.3791908558889106e+08  8.9801061012162596e+07  5.9386700357692353e+07  4.7877074645500943e+07  4.5406117588558681e+07  4.8201178870237418e+07  5.5535330490193449e+07  6.6044040609468050e+07  7.7590386724538475e+07  8.8765918327715412e+07  9.8985927825258762e+07  1.0803687713541424e+08  1.1589836203404836e+08  1.2263452064494076e+08  1.2835875357696222e+08  1.3319033428309628e+08  1.3723048641173708e+08  1.4055985876019710e+08  1.4323817730315927e+08  1.4530688083236718e+08  1.4679367319415811e+08  1.4771543995552331e+08  1.4808055389064756e+08  1.4789064739735618e+08  1.4714177466683134e+08  1.4582473009302309e+08  1.4392432204364672e+08  1.4141768120004231e+08  1.3827173288702065e+08  1.3444002442146593e+08  1.2985826433483487e+08  1.2443513466328451e+08  1.1805548209747303e+08  1.1058131649696872e+08  1.0187049932919477e+08  9.1860845056625038e+07  8.0644005186938569e+07  6.8793811383706510e+07  5.7388122337920912e+07  4.8536966930805676e+07  4.3987507485429220e+07  4.4299533265918858e+07  6.2312007204972342e+07  1.0328293762245937e+08  1.6486241378197205e+08  2.1425584741393167e+08  2.6958970236354530e+08  3.3402942335770047e+08  4.2006043099161536e+08  2.8621416373043793e+08  1.7975882533332098e+08  1.2659729222660089e+08  1.0329053874133532e+08  1.0169820786454000e+08  1.1894709747877738e+08  1.4289380693725175e+08  1.6385824359473833e+08  1.7996180276288775e+08  1.9164515118024722e+08  2.0001527264457312e+08  2.0616736356390959e+08  2.1083519892086461e+08  2.1447836661994785e+08  2.1739545776851150e+08  2.1977870639566427e+08  2.2175095295606059e+08  2.2338936690949148e+08  2.2474588889752904e+08  2.2585789675169560e+08  2.2675349619324234e+08  2.2745483781156382e+08  2.2797941069230884e+08  2.2834049547638100e+08  2.2854738748987830e+08  2.2860529480014127e+08  2.2851503444692549e+08  2.2827259838624233e+08  2.2786863026196969e+08  2.2728774217668962e+08  2.2650748295431209e+08  2.2549666637852812e+08  2.2421262518997484e+08  2.2259799403001788e+08  2.2057373250413445e+08  2.1802721748159564e+08  2.1479523946147436e+08  2.1062635973119026e+08  2.0513482743507195e+08  1.9770027707841262e+08  1.8739276887433887e+08  1.7286001818251204e+08  1.5257373317515832e+08  1.2625087279658759e+08  1.0005295524881202e+08  8.8237417658717498e+07  1.0772292547104287e+08  1.5538974838107657e+08  3.8468831151179928e+08  5.1832621255178422e+08  9.7973953951520491e+08  5.6249871990822744e+08  4.2648507156860352e+08  3.8271611058813316e+08  3.8644076604880321e+08  4.0004868376034045e+08  4.0594104118582410e+08  4.0370255417201096e+08  3.9732984703167689e+08  3.8957869470518595e+08  3.8152401704771000e+08  3.7369039798374176e+08  3.6629386843563765e+08  3.5943455509903252e+08  3.5317849272434324e+08  3.4755803648054552e+08  3.4257850268784314e+08  3.3822846073082012e+08  3.3448712219715351e+08  3.3132909069678193e+08  3.2872729980737752e+08  3.2665585046387678e+08  3.2509205839517748e+08  3.2401787941508615e+08  3.2342101653845787e+08  3.2329567187300527e+08  3.2364306858817530e+08  3.2447186088560361e+08  3.2579845383114475e+08  3.2764723193430144e+08  3.3005067718527699e+08  3.3304935241208804e+08  3.3669170597171825e+08  3.4103366358688617e+08  3.4613762844872338e+08  3.5207090070625895e+08  3.5890369078621876e+08  3.6670552926686668e+08  3.7554156669685853e+08  3.8546566251323104e+08  3.9651372460734230e+08  4.0868388871809942e+08  4.2189933788473356e+08  4.3590244213087261e+08  4.4997350426183176e+08  4.6184681718858916e+08  4.6647763918231803e+08  4.6306716504968846e+08  4.5845748084360725e+08  5.9197328091712308e+08  5.8335057187729454e+08  2.3744051552539754e+09  1.5736177429803317e+09  1.4478957448867726e+09  1.2680664464444516e+09  1.1185251379831097e+09  9.7959848142314875e+08  8.6344183731069148e+08  7.7002616066103697e+08  6.9526421195455408e+08  6.3487843190471089e+08  5.8580374130798447e+08  5.4581809558840895e+08  5.1316578042613894e+08  4.8646835574173915e+08  4.6461482398202050e+08  4.4671131175616002e+08  4.3204774706140524e+08  4.2006245415753418e+08  4.1031201277332681e+08  4.0244748490884787e+08  3.9619614479901618e+08  3.9134736236130279e+08  3.8774174635547233e+08  3.8526322930506885e+08  3.8383344028354871e+08  3.8340795503233534e+08  3.8397416614920431e+08  3.8555054457106960e+08  3.8818718892755222e+08  3.9196766850203866e+08  3.9701224578056288e+08  4.0348263899554092e+08  4.1158856245762390e+08  4.2159632663649625e+08  4.3383993873315901e+08  4.4873517037899619e+08  4.6679672162359691e+08  4.8865898490411127e+08  5.1509976828030270e+08  5.4706641393116999e+08  5.8570055611000049e+08  6.3235816375415492e+08  6.8861572505509651e+08  7.5625461837232971e+08  8.3720710585029256e+08  9.3356635376067126e+08  1.0479924111730733e+09  1.1814721974382360e+09  1.3266067031663611e+09  1.4735104680098500e+09  1.2880359830536568e+09  </DataArray> 
</PointData> 
</Piece>
</UnstructuredGrid>
</VTKFile>